V -t * -v 1.0a5 -a 0
A -t * -n 1 -p 0 -o 0x7fffffff -c 30 -a 1
A -t * -h 1 -m 1073741823 -s 0
n -t * -a 4 -s 4 -S UP -v circle -c black -i black
n -t * -a 0 -s 0 -S UP -v circle -c black -i black
n -t * -a 5 -s 5 -S UP -v circle -c black -i black
n -t * -a 1 -s 1 -S UP -v circle -c black -i black
n -t * -a 2 -s 2 -S UP -v circle -c black -i black
n -t * -a 3 -s 3 -S UP -v circle -c black -i black
l -t * -s 0 -d 2 -S UP -r 2000000 -D 0.0050000000000000001 -c black
l -t * -s 1 -d 2 -S UP -r 2000000 -D 0.0050000000000000001 -c black
l -t * -s 2 -d 3 -S UP -r 512000 -D 0.014999999999999999 -c black
l -t * -s 3 -d 4 -S UP -r 2000000 -D 0.0050000000000000001 -c black
l -t * -s 3 -d 5 -S UP -r 2000000 -D 0.0050000000000000001 -c black
+ -t 0.5 -s 0 -d 2 -p tcp -e 40 -c 0 -i 0 -a 0 -x {0.0 4.0 0 ------- null}
- -t 0.5 -s 0 -d 2 -p tcp -e 40 -c 0 -i 0 -a 0 -x {0.0 4.0 0 ------- null}
h -t 0.5 -s 0 -d 2 -p tcp -e 40 -c 0 -i 0 -a 0 -x {0.0 4.0 -1 ------- null}
r -t 0.50516 -s 0 -d 2 -p tcp -e 40 -c 0 -i 0 -a 0 -x {0.0 4.0 0 ------- null}
+ -t 0.50516 -s 2 -d 3 -p tcp -e 40 -c 0 -i 0 -a 0 -x {0.0 4.0 0 ------- null}
- -t 0.50516 -s 2 -d 3 -p tcp -e 40 -c 0 -i 0 -a 0 -x {0.0 4.0 0 ------- null}
h -t 0.50516 -s 2 -d 3 -p tcp -e 40 -c 0 -i 0 -a 0 -x {0.0 4.0 -1 ------- null}
r -t 0.520785 -s 2 -d 3 -p tcp -e 40 -c 0 -i 0 -a 0 -x {0.0 4.0 0 ------- null}
+ -t 0.520785 -s 3 -d 4 -p tcp -e 40 -c 0 -i 0 -a 0 -x {0.0 4.0 0 ------- null}
- -t 0.520785 -s 3 -d 4 -p tcp -e 40 -c 0 -i 0 -a 0 -x {0.0 4.0 0 ------- null}
h -t 0.520785 -s 3 -d 4 -p tcp -e 40 -c 0 -i 0 -a 0 -x {0.0 4.0 -1 ------- null}
r -t 0.525945 -s 3 -d 4 -p tcp -e 40 -c 0 -i 0 -a 0 -x {0.0 4.0 0 ------- null}
+ -t 0.525945 -s 4 -d 3 -p ack -e 40 -c 0 -i 1 -a 0 -x {4.0 0.0 0 ------- null}
- -t 0.525945 -s 4 -d 3 -p ack -e 40 -c 0 -i 1 -a 0 -x {4.0 0.0 0 ------- null}
h -t 0.525945 -s 4 -d 3 -p ack -e 40 -c 0 -i 1 -a 0 -x {4.0 0.0 -1 ------- null}
r -t 0.531105 -s 4 -d 3 -p ack -e 40 -c 0 -i 1 -a 0 -x {4.0 0.0 0 ------- null}
+ -t 0.531105 -s 3 -d 2 -p ack -e 40 -c 0 -i 1 -a 0 -x {4.0 0.0 0 ------- null}
- -t 0.531105 -s 3 -d 2 -p ack -e 40 -c 0 -i 1 -a 0 -x {4.0 0.0 0 ------- null}
h -t 0.531105 -s 3 -d 2 -p ack -e 40 -c 0 -i 1 -a 0 -x {4.0 0.0 -1 ------- null}
r -t 0.54673 -s 3 -d 2 -p ack -e 40 -c 0 -i 1 -a 0 -x {4.0 0.0 0 ------- null}
+ -t 0.54673 -s 2 -d 0 -p ack -e 40 -c 0 -i 1 -a 0 -x {4.0 0.0 0 ------- null}
- -t 0.54673 -s 2 -d 0 -p ack -e 40 -c 0 -i 1 -a 0 -x {4.0 0.0 0 ------- null}
h -t 0.54673 -s 2 -d 0 -p ack -e 40 -c 0 -i 1 -a 0 -x {4.0 0.0 -1 ------- null}
r -t 0.55189 -s 2 -d 0 -p ack -e 40 -c 0 -i 1 -a 0 -x {4.0 0.0 0 ------- null}
+ -t 0.55189 -s 0 -d 2 -p tcp -e 1040 -c 0 -i 2 -a 0 -x {0.0 4.0 1 ------- null}
- -t 0.55189 -s 0 -d 2 -p tcp -e 1040 -c 0 -i 2 -a 0 -x {0.0 4.0 1 ------- null}
h -t 0.55189 -s 0 -d 2 -p tcp -e 1040 -c 0 -i 2 -a 0 -x {0.0 4.0 -1 ------- null}
+ -t 0.55189 -s 0 -d 2 -p tcp -e 1040 -c 0 -i 3 -a 0 -x {0.0 4.0 2 ------- null}
- -t 0.55605 -s 0 -d 2 -p tcp -e 1040 -c 0 -i 3 -a 0 -x {0.0 4.0 2 ------- null}
h -t 0.55605 -s 0 -d 2 -p tcp -e 1040 -c 0 -i 3 -a 0 -x {0.0 4.0 -1 ------- null}
r -t 0.56105 -s 0 -d 2 -p tcp -e 1040 -c 0 -i 2 -a 0 -x {0.0 4.0 1 ------- null}
+ -t 0.56105 -s 2 -d 3 -p tcp -e 1040 -c 0 -i 2 -a 0 -x {0.0 4.0 1 ------- null}
- -t 0.56105 -s 2 -d 3 -p tcp -e 1040 -c 0 -i 2 -a 0 -x {0.0 4.0 1 ------- null}
h -t 0.56105 -s 2 -d 3 -p tcp -e 1040 -c 0 -i 2 -a 0 -x {0.0 4.0 -1 ------- null}
r -t 0.56521 -s 0 -d 2 -p tcp -e 1040 -c 0 -i 3 -a 0 -x {0.0 4.0 2 ------- null}
+ -t 0.56521 -s 2 -d 3 -p tcp -e 1040 -c 0 -i 3 -a 0 -x {0.0 4.0 2 ------- null}
- -t 0.5773 -s 2 -d 3 -p tcp -e 1040 -c 0 -i 3 -a 0 -x {0.0 4.0 2 ------- null}
h -t 0.5773 -s 2 -d 3 -p tcp -e 1040 -c 0 -i 3 -a 0 -x {0.0 4.0 -1 ------- null}
r -t 0.5923 -s 2 -d 3 -p tcp -e 1040 -c 0 -i 2 -a 0 -x {0.0 4.0 1 ------- null}
+ -t 0.5923 -s 3 -d 4 -p tcp -e 1040 -c 0 -i 2 -a 0 -x {0.0 4.0 1 ------- null}
- -t 0.5923 -s 3 -d 4 -p tcp -e 1040 -c 0 -i 2 -a 0 -x {0.0 4.0 1 ------- null}
h -t 0.5923 -s 3 -d 4 -p tcp -e 1040 -c 0 -i 2 -a 0 -x {0.0 4.0 -1 ------- null}
r -t 0.60146 -s 3 -d 4 -p tcp -e 1040 -c 0 -i 2 -a 0 -x {0.0 4.0 1 ------- null}
+ -t 0.60146 -s 4 -d 3 -p ack -e 40 -c 0 -i 4 -a 0 -x {4.0 0.0 1 ------- null}
- -t 0.60146 -s 4 -d 3 -p ack -e 40 -c 0 -i 4 -a 0 -x {4.0 0.0 1 ------- null}
h -t 0.60146 -s 4 -d 3 -p ack -e 40 -c 0 -i 4 -a 0 -x {4.0 0.0 -1 ------- null}
r -t 0.60662 -s 4 -d 3 -p ack -e 40 -c 0 -i 4 -a 0 -x {4.0 0.0 1 ------- null}
+ -t 0.60662 -s 3 -d 2 -p ack -e 40 -c 0 -i 4 -a 0 -x {4.0 0.0 1 ------- null}
- -t 0.60662 -s 3 -d 2 -p ack -e 40 -c 0 -i 4 -a 0 -x {4.0 0.0 1 ------- null}
h -t 0.60662 -s 3 -d 2 -p ack -e 40 -c 0 -i 4 -a 0 -x {4.0 0.0 -1 ------- null}
r -t 0.60855 -s 2 -d 3 -p tcp -e 1040 -c 0 -i 3 -a 0 -x {0.0 4.0 2 ------- null}
+ -t 0.60855 -s 3 -d 4 -p tcp -e 1040 -c 0 -i 3 -a 0 -x {0.0 4.0 2 ------- null}
- -t 0.60855 -s 3 -d 4 -p tcp -e 1040 -c 0 -i 3 -a 0 -x {0.0 4.0 2 ------- null}
h -t 0.60855 -s 3 -d 4 -p tcp -e 1040 -c 0 -i 3 -a 0 -x {0.0 4.0 -1 ------- null}
r -t 0.61771 -s 3 -d 4 -p tcp -e 1040 -c 0 -i 3 -a 0 -x {0.0 4.0 2 ------- null}
+ -t 0.61771 -s 4 -d 3 -p ack -e 40 -c 0 -i 5 -a 0 -x {4.0 0.0 2 ------- null}
- -t 0.61771 -s 4 -d 3 -p ack -e 40 -c 0 -i 5 -a 0 -x {4.0 0.0 2 ------- null}
h -t 0.61771 -s 4 -d 3 -p ack -e 40 -c 0 -i 5 -a 0 -x {4.0 0.0 -1 ------- null}
r -t 0.622245 -s 3 -d 2 -p ack -e 40 -c 0 -i 4 -a 0 -x {4.0 0.0 1 ------- null}
+ -t 0.622245 -s 2 -d 0 -p ack -e 40 -c 0 -i 4 -a 0 -x {4.0 0.0 1 ------- null}
- -t 0.622245 -s 2 -d 0 -p ack -e 40 -c 0 -i 4 -a 0 -x {4.0 0.0 1 ------- null}
h -t 0.622245 -s 2 -d 0 -p ack -e 40 -c 0 -i 4 -a 0 -x {4.0 0.0 -1 ------- null}
r -t 0.62287 -s 4 -d 3 -p ack -e 40 -c 0 -i 5 -a 0 -x {4.0 0.0 2 ------- null}
+ -t 0.62287 -s 3 -d 2 -p ack -e 40 -c 0 -i 5 -a 0 -x {4.0 0.0 2 ------- null}
- -t 0.62287 -s 3 -d 2 -p ack -e 40 -c 0 -i 5 -a 0 -x {4.0 0.0 2 ------- null}
h -t 0.62287 -s 3 -d 2 -p ack -e 40 -c 0 -i 5 -a 0 -x {4.0 0.0 -1 ------- null}
r -t 0.627405 -s 2 -d 0 -p ack -e 40 -c 0 -i 4 -a 0 -x {4.0 0.0 1 ------- null}
+ -t 0.627405 -s 0 -d 2 -p tcp -e 1040 -c 0 -i 6 -a 0 -x {0.0 4.0 3 ------- null}
- -t 0.627405 -s 0 -d 2 -p tcp -e 1040 -c 0 -i 6 -a 0 -x {0.0 4.0 3 ------- null}
h -t 0.627405 -s 0 -d 2 -p tcp -e 1040 -c 0 -i 6 -a 0 -x {0.0 4.0 -1 ------- null}
+ -t 0.627405 -s 0 -d 2 -p tcp -e 1040 -c 0 -i 7 -a 0 -x {0.0 4.0 4 ------- null}
- -t 0.631565 -s 0 -d 2 -p tcp -e 1040 -c 0 -i 7 -a 0 -x {0.0 4.0 4 ------- null}
h -t 0.631565 -s 0 -d 2 -p tcp -e 1040 -c 0 -i 7 -a 0 -x {0.0 4.0 -1 ------- null}
r -t 0.636565 -s 0 -d 2 -p tcp -e 1040 -c 0 -i 6 -a 0 -x {0.0 4.0 3 ------- null}
+ -t 0.636565 -s 2 -d 3 -p tcp -e 1040 -c 0 -i 6 -a 0 -x {0.0 4.0 3 ------- null}
- -t 0.636565 -s 2 -d 3 -p tcp -e 1040 -c 0 -i 6 -a 0 -x {0.0 4.0 3 ------- null}
h -t 0.636565 -s 2 -d 3 -p tcp -e 1040 -c 0 -i 6 -a 0 -x {0.0 4.0 -1 ------- null}
r -t 0.638495 -s 3 -d 2 -p ack -e 40 -c 0 -i 5 -a 0 -x {4.0 0.0 2 ------- null}
+ -t 0.638495 -s 2 -d 0 -p ack -e 40 -c 0 -i 5 -a 0 -x {4.0 0.0 2 ------- null}
- -t 0.638495 -s 2 -d 0 -p ack -e 40 -c 0 -i 5 -a 0 -x {4.0 0.0 2 ------- null}
h -t 0.638495 -s 2 -d 0 -p ack -e 40 -c 0 -i 5 -a 0 -x {4.0 0.0 -1 ------- null}
r -t 0.640725 -s 0 -d 2 -p tcp -e 1040 -c 0 -i 7 -a 0 -x {0.0 4.0 4 ------- null}
+ -t 0.640725 -s 2 -d 3 -p tcp -e 1040 -c 0 -i 7 -a 0 -x {0.0 4.0 4 ------- null}
r -t 0.643655 -s 2 -d 0 -p ack -e 40 -c 0 -i 5 -a 0 -x {4.0 0.0 2 ------- null}
+ -t 0.643655 -s 0 -d 2 -p tcp -e 1040 -c 0 -i 8 -a 0 -x {0.0 4.0 5 ------- null}
- -t 0.643655 -s 0 -d 2 -p tcp -e 1040 -c 0 -i 8 -a 0 -x {0.0 4.0 5 ------- null}
h -t 0.643655 -s 0 -d 2 -p tcp -e 1040 -c 0 -i 8 -a 0 -x {0.0 4.0 -1 ------- null}
+ -t 0.643655 -s 0 -d 2 -p tcp -e 1040 -c 0 -i 9 -a 0 -x {0.0 4.0 6 ------- null}
- -t 0.647815 -s 0 -d 2 -p tcp -e 1040 -c 0 -i 9 -a 0 -x {0.0 4.0 6 ------- null}
h -t 0.647815 -s 0 -d 2 -p tcp -e 1040 -c 0 -i 9 -a 0 -x {0.0 4.0 -1 ------- null}
- -t 0.652815 -s 2 -d 3 -p tcp -e 1040 -c 0 -i 7 -a 0 -x {0.0 4.0 4 ------- null}
h -t 0.652815 -s 2 -d 3 -p tcp -e 1040 -c 0 -i 7 -a 0 -x {0.0 4.0 -1 ------- null}
r -t 0.652815 -s 0 -d 2 -p tcp -e 1040 -c 0 -i 8 -a 0 -x {0.0 4.0 5 ------- null}
+ -t 0.652815 -s 2 -d 3 -p tcp -e 1040 -c 0 -i 8 -a 0 -x {0.0 4.0 5 ------- null}
r -t 0.656975 -s 0 -d 2 -p tcp -e 1040 -c 0 -i 9 -a 0 -x {0.0 4.0 6 ------- null}
+ -t 0.656975 -s 2 -d 3 -p tcp -e 1040 -c 0 -i 9 -a 0 -x {0.0 4.0 6 ------- null}
r -t 0.667815 -s 2 -d 3 -p tcp -e 1040 -c 0 -i 6 -a 0 -x {0.0 4.0 3 ------- null}
+ -t 0.667815 -s 3 -d 4 -p tcp -e 1040 -c 0 -i 6 -a 0 -x {0.0 4.0 3 ------- null}
- -t 0.667815 -s 3 -d 4 -p tcp -e 1040 -c 0 -i 6 -a 0 -x {0.0 4.0 3 ------- null}
h -t 0.667815 -s 3 -d 4 -p tcp -e 1040 -c 0 -i 6 -a 0 -x {0.0 4.0 -1 ------- null}
- -t 0.669065 -s 2 -d 3 -p tcp -e 1040 -c 0 -i 8 -a 0 -x {0.0 4.0 5 ------- null}
h -t 0.669065 -s 2 -d 3 -p tcp -e 1040 -c 0 -i 8 -a 0 -x {0.0 4.0 -1 ------- null}
r -t 0.676975 -s 3 -d 4 -p tcp -e 1040 -c 0 -i 6 -a 0 -x {0.0 4.0 3 ------- null}
+ -t 0.676975 -s 4 -d 3 -p ack -e 40 -c 0 -i 10 -a 0 -x {4.0 0.0 3 ------- null}
- -t 0.676975 -s 4 -d 3 -p ack -e 40 -c 0 -i 10 -a 0 -x {4.0 0.0 3 ------- null}
h -t 0.676975 -s 4 -d 3 -p ack -e 40 -c 0 -i 10 -a 0 -x {4.0 0.0 -1 ------- null}
r -t 0.682135 -s 4 -d 3 -p ack -e 40 -c 0 -i 10 -a 0 -x {4.0 0.0 3 ------- null}
+ -t 0.682135 -s 3 -d 2 -p ack -e 40 -c 0 -i 10 -a 0 -x {4.0 0.0 3 ------- null}
- -t 0.682135 -s 3 -d 2 -p ack -e 40 -c 0 -i 10 -a 0 -x {4.0 0.0 3 ------- null}
h -t 0.682135 -s 3 -d 2 -p ack -e 40 -c 0 -i 10 -a 0 -x {4.0 0.0 -1 ------- null}
r -t 0.684065 -s 2 -d 3 -p tcp -e 1040 -c 0 -i 7 -a 0 -x {0.0 4.0 4 ------- null}
+ -t 0.684065 -s 3 -d 4 -p tcp -e 1040 -c 0 -i 7 -a 0 -x {0.0 4.0 4 ------- null}
- -t 0.684065 -s 3 -d 4 -p tcp -e 1040 -c 0 -i 7 -a 0 -x {0.0 4.0 4 ------- null}
h -t 0.684065 -s 3 -d 4 -p tcp -e 1040 -c 0 -i 7 -a 0 -x {0.0 4.0 -1 ------- null}
- -t 0.685315 -s 2 -d 3 -p tcp -e 1040 -c 0 -i 9 -a 0 -x {0.0 4.0 6 ------- null}
h -t 0.685315 -s 2 -d 3 -p tcp -e 1040 -c 0 -i 9 -a 0 -x {0.0 4.0 -1 ------- null}
r -t 0.693225 -s 3 -d 4 -p tcp -e 1040 -c 0 -i 7 -a 0 -x {0.0 4.0 4 ------- null}
+ -t 0.693225 -s 4 -d 3 -p ack -e 40 -c 0 -i 11 -a 0 -x {4.0 0.0 4 ------- null}
- -t 0.693225 -s 4 -d 3 -p ack -e 40 -c 0 -i 11 -a 0 -x {4.0 0.0 4 ------- null}
h -t 0.693225 -s 4 -d 3 -p ack -e 40 -c 0 -i 11 -a 0 -x {4.0 0.0 -1 ------- null}
r -t 0.69776 -s 3 -d 2 -p ack -e 40 -c 0 -i 10 -a 0 -x {4.0 0.0 3 ------- null}
+ -t 0.69776 -s 2 -d 0 -p ack -e 40 -c 0 -i 10 -a 0 -x {4.0 0.0 3 ------- null}
- -t 0.69776 -s 2 -d 0 -p ack -e 40 -c 0 -i 10 -a 0 -x {4.0 0.0 3 ------- null}
h -t 0.69776 -s 2 -d 0 -p ack -e 40 -c 0 -i 10 -a 0 -x {4.0 0.0 -1 ------- null}
r -t 0.698385 -s 4 -d 3 -p ack -e 40 -c 0 -i 11 -a 0 -x {4.0 0.0 4 ------- null}
+ -t 0.698385 -s 3 -d 2 -p ack -e 40 -c 0 -i 11 -a 0 -x {4.0 0.0 4 ------- null}
- -t 0.698385 -s 3 -d 2 -p ack -e 40 -c 0 -i 11 -a 0 -x {4.0 0.0 4 ------- null}
h -t 0.698385 -s 3 -d 2 -p ack -e 40 -c 0 -i 11 -a 0 -x {4.0 0.0 -1 ------- null}
r -t 0.700315 -s 2 -d 3 -p tcp -e 1040 -c 0 -i 8 -a 0 -x {0.0 4.0 5 ------- null}
+ -t 0.700315 -s 3 -d 4 -p tcp -e 1040 -c 0 -i 8 -a 0 -x {0.0 4.0 5 ------- null}
- -t 0.700315 -s 3 -d 4 -p tcp -e 1040 -c 0 -i 8 -a 0 -x {0.0 4.0 5 ------- null}
h -t 0.700315 -s 3 -d 4 -p tcp -e 1040 -c 0 -i 8 -a 0 -x {0.0 4.0 -1 ------- null}
r -t 0.70292 -s 2 -d 0 -p ack -e 40 -c 0 -i 10 -a 0 -x {4.0 0.0 3 ------- null}
+ -t 0.70292 -s 0 -d 2 -p tcp -e 1040 -c 0 -i 12 -a 0 -x {0.0 4.0 7 ------- null}
- -t 0.70292 -s 0 -d 2 -p tcp -e 1040 -c 0 -i 12 -a 0 -x {0.0 4.0 7 ------- null}
h -t 0.70292 -s 0 -d 2 -p tcp -e 1040 -c 0 -i 12 -a 0 -x {0.0 4.0 -1 ------- null}
+ -t 0.70292 -s 0 -d 2 -p tcp -e 1040 -c 0 -i 13 -a 0 -x {0.0 4.0 8 ------- null}
- -t 0.70708 -s 0 -d 2 -p tcp -e 1040 -c 0 -i 13 -a 0 -x {0.0 4.0 8 ------- null}
h -t 0.70708 -s 0 -d 2 -p tcp -e 1040 -c 0 -i 13 -a 0 -x {0.0 4.0 -1 ------- null}
r -t 0.709475 -s 3 -d 4 -p tcp -e 1040 -c 0 -i 8 -a 0 -x {0.0 4.0 5 ------- null}
+ -t 0.709475 -s 4 -d 3 -p ack -e 40 -c 0 -i 14 -a 0 -x {4.0 0.0 5 ------- null}
- -t 0.709475 -s 4 -d 3 -p ack -e 40 -c 0 -i 14 -a 0 -x {4.0 0.0 5 ------- null}
h -t 0.709475 -s 4 -d 3 -p ack -e 40 -c 0 -i 14 -a 0 -x {4.0 0.0 -1 ------- null}
r -t 0.71208 -s 0 -d 2 -p tcp -e 1040 -c 0 -i 12 -a 0 -x {0.0 4.0 7 ------- null}
+ -t 0.71208 -s 2 -d 3 -p tcp -e 1040 -c 0 -i 12 -a 0 -x {0.0 4.0 7 ------- null}
- -t 0.71208 -s 2 -d 3 -p tcp -e 1040 -c 0 -i 12 -a 0 -x {0.0 4.0 7 ------- null}
h -t 0.71208 -s 2 -d 3 -p tcp -e 1040 -c 0 -i 12 -a 0 -x {0.0 4.0 -1 ------- null}
r -t 0.71401 -s 3 -d 2 -p ack -e 40 -c 0 -i 11 -a 0 -x {4.0 0.0 4 ------- null}
+ -t 0.71401 -s 2 -d 0 -p ack -e 40 -c 0 -i 11 -a 0 -x {4.0 0.0 4 ------- null}
- -t 0.71401 -s 2 -d 0 -p ack -e 40 -c 0 -i 11 -a 0 -x {4.0 0.0 4 ------- null}
h -t 0.71401 -s 2 -d 0 -p ack -e 40 -c 0 -i 11 -a 0 -x {4.0 0.0 -1 ------- null}
r -t 0.714635 -s 4 -d 3 -p ack -e 40 -c 0 -i 14 -a 0 -x {4.0 0.0 5 ------- null}
+ -t 0.714635 -s 3 -d 2 -p ack -e 40 -c 0 -i 14 -a 0 -x {4.0 0.0 5 ------- null}
- -t 0.714635 -s 3 -d 2 -p ack -e 40 -c 0 -i 14 -a 0 -x {4.0 0.0 5 ------- null}
h -t 0.714635 -s 3 -d 2 -p ack -e 40 -c 0 -i 14 -a 0 -x {4.0 0.0 -1 ------- null}
r -t 0.71624 -s 0 -d 2 -p tcp -e 1040 -c 0 -i 13 -a 0 -x {0.0 4.0 8 ------- null}
+ -t 0.71624 -s 2 -d 3 -p tcp -e 1040 -c 0 -i 13 -a 0 -x {0.0 4.0 8 ------- null}
r -t 0.716565 -s 2 -d 3 -p tcp -e 1040 -c 0 -i 9 -a 0 -x {0.0 4.0 6 ------- null}
+ -t 0.716565 -s 3 -d 4 -p tcp -e 1040 -c 0 -i 9 -a 0 -x {0.0 4.0 6 ------- null}
- -t 0.716565 -s 3 -d 4 -p tcp -e 1040 -c 0 -i 9 -a 0 -x {0.0 4.0 6 ------- null}
h -t 0.716565 -s 3 -d 4 -p tcp -e 1040 -c 0 -i 9 -a 0 -x {0.0 4.0 -1 ------- null}
r -t 0.71917 -s 2 -d 0 -p ack -e 40 -c 0 -i 11 -a 0 -x {4.0 0.0 4 ------- null}
+ -t 0.71917 -s 0 -d 2 -p tcp -e 1040 -c 0 -i 15 -a 0 -x {0.0 4.0 9 ------- null}
- -t 0.71917 -s 0 -d 2 -p tcp -e 1040 -c 0 -i 15 -a 0 -x {0.0 4.0 9 ------- null}
h -t 0.71917 -s 0 -d 2 -p tcp -e 1040 -c 0 -i 15 -a 0 -x {0.0 4.0 -1 ------- null}
+ -t 0.71917 -s 0 -d 2 -p tcp -e 1040 -c 0 -i 16 -a 0 -x {0.0 4.0 10 ------- null}
- -t 0.72333 -s 0 -d 2 -p tcp -e 1040 -c 0 -i 16 -a 0 -x {0.0 4.0 10 ------- null}
h -t 0.72333 -s 0 -d 2 -p tcp -e 1040 -c 0 -i 16 -a 0 -x {0.0 4.0 -1 ------- null}
r -t 0.725725 -s 3 -d 4 -p tcp -e 1040 -c 0 -i 9 -a 0 -x {0.0 4.0 6 ------- null}
+ -t 0.725725 -s 4 -d 3 -p ack -e 40 -c 0 -i 17 -a 0 -x {4.0 0.0 6 ------- null}
- -t 0.725725 -s 4 -d 3 -p ack -e 40 -c 0 -i 17 -a 0 -x {4.0 0.0 6 ------- null}
h -t 0.725725 -s 4 -d 3 -p ack -e 40 -c 0 -i 17 -a 0 -x {4.0 0.0 -1 ------- null}
- -t 0.72833 -s 2 -d 3 -p tcp -e 1040 -c 0 -i 13 -a 0 -x {0.0 4.0 8 ------- null}
h -t 0.72833 -s 2 -d 3 -p tcp -e 1040 -c 0 -i 13 -a 0 -x {0.0 4.0 -1 ------- null}
r -t 0.72833 -s 0 -d 2 -p tcp -e 1040 -c 0 -i 15 -a 0 -x {0.0 4.0 9 ------- null}
+ -t 0.72833 -s 2 -d 3 -p tcp -e 1040 -c 0 -i 15 -a 0 -x {0.0 4.0 9 ------- null}
r -t 0.73026 -s 3 -d 2 -p ack -e 40 -c 0 -i 14 -a 0 -x {4.0 0.0 5 ------- null}
+ -t 0.73026 -s 2 -d 0 -p ack -e 40 -c 0 -i 14 -a 0 -x {4.0 0.0 5 ------- null}
- -t 0.73026 -s 2 -d 0 -p ack -e 40 -c 0 -i 14 -a 0 -x {4.0 0.0 5 ------- null}
h -t 0.73026 -s 2 -d 0 -p ack -e 40 -c 0 -i 14 -a 0 -x {4.0 0.0 -1 ------- null}
r -t 0.730885 -s 4 -d 3 -p ack -e 40 -c 0 -i 17 -a 0 -x {4.0 0.0 6 ------- null}
+ -t 0.730885 -s 3 -d 2 -p ack -e 40 -c 0 -i 17 -a 0 -x {4.0 0.0 6 ------- null}
- -t 0.730885 -s 3 -d 2 -p ack -e 40 -c 0 -i 17 -a 0 -x {4.0 0.0 6 ------- null}
h -t 0.730885 -s 3 -d 2 -p ack -e 40 -c 0 -i 17 -a 0 -x {4.0 0.0 -1 ------- null}
r -t 0.73249 -s 0 -d 2 -p tcp -e 1040 -c 0 -i 16 -a 0 -x {0.0 4.0 10 ------- null}
+ -t 0.73249 -s 2 -d 3 -p tcp -e 1040 -c 0 -i 16 -a 0 -x {0.0 4.0 10 ------- null}
r -t 0.73542 -s 2 -d 0 -p ack -e 40 -c 0 -i 14 -a 0 -x {4.0 0.0 5 ------- null}
+ -t 0.73542 -s 0 -d 2 -p tcp -e 1040 -c 0 -i 18 -a 0 -x {0.0 4.0 11 ------- null}
- -t 0.73542 -s 0 -d 2 -p tcp -e 1040 -c 0 -i 18 -a 0 -x {0.0 4.0 11 ------- null}
h -t 0.73542 -s 0 -d 2 -p tcp -e 1040 -c 0 -i 18 -a 0 -x {0.0 4.0 -1 ------- null}
+ -t 0.73542 -s 0 -d 2 -p tcp -e 1040 -c 0 -i 19 -a 0 -x {0.0 4.0 12 ------- null}
- -t 0.73958 -s 0 -d 2 -p tcp -e 1040 -c 0 -i 19 -a 0 -x {0.0 4.0 12 ------- null}
h -t 0.73958 -s 0 -d 2 -p tcp -e 1040 -c 0 -i 19 -a 0 -x {0.0 4.0 -1 ------- null}
r -t 0.74333 -s 2 -d 3 -p tcp -e 1040 -c 0 -i 12 -a 0 -x {0.0 4.0 7 ------- null}
+ -t 0.74333 -s 3 -d 4 -p tcp -e 1040 -c 0 -i 12 -a 0 -x {0.0 4.0 7 ------- null}
- -t 0.74333 -s 3 -d 4 -p tcp -e 1040 -c 0 -i 12 -a 0 -x {0.0 4.0 7 ------- null}
h -t 0.74333 -s 3 -d 4 -p tcp -e 1040 -c 0 -i 12 -a 0 -x {0.0 4.0 -1 ------- null}
- -t 0.74458 -s 2 -d 3 -p tcp -e 1040 -c 0 -i 15 -a 0 -x {0.0 4.0 9 ------- null}
h -t 0.74458 -s 2 -d 3 -p tcp -e 1040 -c 0 -i 15 -a 0 -x {0.0 4.0 -1 ------- null}
r -t 0.74458 -s 0 -d 2 -p tcp -e 1040 -c 0 -i 18 -a 0 -x {0.0 4.0 11 ------- null}
+ -t 0.74458 -s 2 -d 3 -p tcp -e 1040 -c 0 -i 18 -a 0 -x {0.0 4.0 11 ------- null}
r -t 0.74651 -s 3 -d 2 -p ack -e 40 -c 0 -i 17 -a 0 -x {4.0 0.0 6 ------- null}
+ -t 0.74651 -s 2 -d 0 -p ack -e 40 -c 0 -i 17 -a 0 -x {4.0 0.0 6 ------- null}
- -t 0.74651 -s 2 -d 0 -p ack -e 40 -c 0 -i 17 -a 0 -x {4.0 0.0 6 ------- null}
h -t 0.74651 -s 2 -d 0 -p ack -e 40 -c 0 -i 17 -a 0 -x {4.0 0.0 -1 ------- null}
r -t 0.74874 -s 0 -d 2 -p tcp -e 1040 -c 0 -i 19 -a 0 -x {0.0 4.0 12 ------- null}
+ -t 0.74874 -s 2 -d 3 -p tcp -e 1040 -c 0 -i 19 -a 0 -x {0.0 4.0 12 ------- null}
r -t 0.75167 -s 2 -d 0 -p ack -e 40 -c 0 -i 17 -a 0 -x {4.0 0.0 6 ------- null}
+ -t 0.75167 -s 0 -d 2 -p tcp -e 1040 -c 0 -i 20 -a 0 -x {0.0 4.0 13 ------- null}
- -t 0.75167 -s 0 -d 2 -p tcp -e 1040 -c 0 -i 20 -a 0 -x {0.0 4.0 13 ------- null}
h -t 0.75167 -s 0 -d 2 -p tcp -e 1040 -c 0 -i 20 -a 0 -x {0.0 4.0 -1 ------- null}
+ -t 0.75167 -s 0 -d 2 -p tcp -e 1040 -c 0 -i 21 -a 0 -x {0.0 4.0 14 ------- null}
r -t 0.75249 -s 3 -d 4 -p tcp -e 1040 -c 0 -i 12 -a 0 -x {0.0 4.0 7 ------- null}
+ -t 0.75249 -s 4 -d 3 -p ack -e 40 -c 0 -i 22 -a 0 -x {4.0 0.0 7 ------- null}
- -t 0.75249 -s 4 -d 3 -p ack -e 40 -c 0 -i 22 -a 0 -x {4.0 0.0 7 ------- null}
h -t 0.75249 -s 4 -d 3 -p ack -e 40 -c 0 -i 22 -a 0 -x {4.0 0.0 -1 ------- null}
- -t 0.75583 -s 0 -d 2 -p tcp -e 1040 -c 0 -i 21 -a 0 -x {0.0 4.0 14 ------- null}
h -t 0.75583 -s 0 -d 2 -p tcp -e 1040 -c 0 -i 21 -a 0 -x {0.0 4.0 -1 ------- null}
r -t 0.75765 -s 4 -d 3 -p ack -e 40 -c 0 -i 22 -a 0 -x {4.0 0.0 7 ------- null}
+ -t 0.75765 -s 3 -d 2 -p ack -e 40 -c 0 -i 22 -a 0 -x {4.0 0.0 7 ------- null}
- -t 0.75765 -s 3 -d 2 -p ack -e 40 -c 0 -i 22 -a 0 -x {4.0 0.0 7 ------- null}
h -t 0.75765 -s 3 -d 2 -p ack -e 40 -c 0 -i 22 -a 0 -x {4.0 0.0 -1 ------- null}
r -t 0.75958 -s 2 -d 3 -p tcp -e 1040 -c 0 -i 13 -a 0 -x {0.0 4.0 8 ------- null}
+ -t 0.75958 -s 3 -d 4 -p tcp -e 1040 -c 0 -i 13 -a 0 -x {0.0 4.0 8 ------- null}
- -t 0.75958 -s 3 -d 4 -p tcp -e 1040 -c 0 -i 13 -a 0 -x {0.0 4.0 8 ------- null}
h -t 0.75958 -s 3 -d 4 -p tcp -e 1040 -c 0 -i 13 -a 0 -x {0.0 4.0 -1 ------- null}
- -t 0.76083 -s 2 -d 3 -p tcp -e 1040 -c 0 -i 16 -a 0 -x {0.0 4.0 10 ------- null}
h -t 0.76083 -s 2 -d 3 -p tcp -e 1040 -c 0 -i 16 -a 0 -x {0.0 4.0 -1 ------- null}
r -t 0.76083 -s 0 -d 2 -p tcp -e 1040 -c 0 -i 20 -a 0 -x {0.0 4.0 13 ------- null}
+ -t 0.76083 -s 2 -d 3 -p tcp -e 1040 -c 0 -i 20 -a 0 -x {0.0 4.0 13 ------- null}
r -t 0.76499 -s 0 -d 2 -p tcp -e 1040 -c 0 -i 21 -a 0 -x {0.0 4.0 14 ------- null}
+ -t 0.76499 -s 2 -d 3 -p tcp -e 1040 -c 0 -i 21 -a 0 -x {0.0 4.0 14 ------- null}
r -t 0.76874 -s 3 -d 4 -p tcp -e 1040 -c 0 -i 13 -a 0 -x {0.0 4.0 8 ------- null}
+ -t 0.76874 -s 4 -d 3 -p ack -e 40 -c 0 -i 23 -a 0 -x {4.0 0.0 8 ------- null}
- -t 0.76874 -s 4 -d 3 -p ack -e 40 -c 0 -i 23 -a 0 -x {4.0 0.0 8 ------- null}
h -t 0.76874 -s 4 -d 3 -p ack -e 40 -c 0 -i 23 -a 0 -x {4.0 0.0 -1 ------- null}
r -t 0.773275 -s 3 -d 2 -p ack -e 40 -c 0 -i 22 -a 0 -x {4.0 0.0 7 ------- null}
+ -t 0.773275 -s 2 -d 0 -p ack -e 40 -c 0 -i 22 -a 0 -x {4.0 0.0 7 ------- null}
- -t 0.773275 -s 2 -d 0 -p ack -e 40 -c 0 -i 22 -a 0 -x {4.0 0.0 7 ------- null}
h -t 0.773275 -s 2 -d 0 -p ack -e 40 -c 0 -i 22 -a 0 -x {4.0 0.0 -1 ------- null}
r -t 0.7739 -s 4 -d 3 -p ack -e 40 -c 0 -i 23 -a 0 -x {4.0 0.0 8 ------- null}
+ -t 0.7739 -s 3 -d 2 -p ack -e 40 -c 0 -i 23 -a 0 -x {4.0 0.0 8 ------- null}
- -t 0.7739 -s 3 -d 2 -p ack -e 40 -c 0 -i 23 -a 0 -x {4.0 0.0 8 ------- null}
h -t 0.7739 -s 3 -d 2 -p ack -e 40 -c 0 -i 23 -a 0 -x {4.0 0.0 -1 ------- null}
r -t 0.77583 -s 2 -d 3 -p tcp -e 1040 -c 0 -i 15 -a 0 -x {0.0 4.0 9 ------- null}
+ -t 0.77583 -s 3 -d 4 -p tcp -e 1040 -c 0 -i 15 -a 0 -x {0.0 4.0 9 ------- null}
- -t 0.77583 -s 3 -d 4 -p tcp -e 1040 -c 0 -i 15 -a 0 -x {0.0 4.0 9 ------- null}
h -t 0.77583 -s 3 -d 4 -p tcp -e 1040 -c 0 -i 15 -a 0 -x {0.0 4.0 -1 ------- null}
- -t 0.77708 -s 2 -d 3 -p tcp -e 1040 -c 0 -i 18 -a 0 -x {0.0 4.0 11 ------- null}
h -t 0.77708 -s 2 -d 3 -p tcp -e 1040 -c 0 -i 18 -a 0 -x {0.0 4.0 -1 ------- null}
r -t 0.778435 -s 2 -d 0 -p ack -e 40 -c 0 -i 22 -a 0 -x {4.0 0.0 7 ------- null}
+ -t 0.778435 -s 0 -d 2 -p tcp -e 1040 -c 0 -i 24 -a 0 -x {0.0 4.0 15 ------- null}
- -t 0.778435 -s 0 -d 2 -p tcp -e 1040 -c 0 -i 24 -a 0 -x {0.0 4.0 15 ------- null}
h -t 0.778435 -s 0 -d 2 -p tcp -e 1040 -c 0 -i 24 -a 0 -x {0.0 4.0 -1 ------- null}
+ -t 0.778435 -s 0 -d 2 -p tcp -e 1040 -c 0 -i 25 -a 0 -x {0.0 4.0 16 ------- null}
- -t 0.782595 -s 0 -d 2 -p tcp -e 1040 -c 0 -i 25 -a 0 -x {0.0 4.0 16 ------- null}
h -t 0.782595 -s 0 -d 2 -p tcp -e 1040 -c 0 -i 25 -a 0 -x {0.0 4.0 -1 ------- null}
r -t 0.78499 -s 3 -d 4 -p tcp -e 1040 -c 0 -i 15 -a 0 -x {0.0 4.0 9 ------- null}
+ -t 0.78499 -s 4 -d 3 -p ack -e 40 -c 0 -i 26 -a 0 -x {4.0 0.0 9 ------- null}
- -t 0.78499 -s 4 -d 3 -p ack -e 40 -c 0 -i 26 -a 0 -x {4.0 0.0 9 ------- null}
h -t 0.78499 -s 4 -d 3 -p ack -e 40 -c 0 -i 26 -a 0 -x {4.0 0.0 -1 ------- null}
r -t 0.787595 -s 0 -d 2 -p tcp -e 1040 -c 0 -i 24 -a 0 -x {0.0 4.0 15 ------- null}
+ -t 0.787595 -s 2 -d 3 -p tcp -e 1040 -c 0 -i 24 -a 0 -x {0.0 4.0 15 ------- null}
r -t 0.789525 -s 3 -d 2 -p ack -e 40 -c 0 -i 23 -a 0 -x {4.0 0.0 8 ------- null}
+ -t 0.789525 -s 2 -d 0 -p ack -e 40 -c 0 -i 23 -a 0 -x {4.0 0.0 8 ------- null}
- -t 0.789525 -s 2 -d 0 -p ack -e 40 -c 0 -i 23 -a 0 -x {4.0 0.0 8 ------- null}
h -t 0.789525 -s 2 -d 0 -p ack -e 40 -c 0 -i 23 -a 0 -x {4.0 0.0 -1 ------- null}
r -t 0.79015 -s 4 -d 3 -p ack -e 40 -c 0 -i 26 -a 0 -x {4.0 0.0 9 ------- null}
+ -t 0.79015 -s 3 -d 2 -p ack -e 40 -c 0 -i 26 -a 0 -x {4.0 0.0 9 ------- null}
- -t 0.79015 -s 3 -d 2 -p ack -e 40 -c 0 -i 26 -a 0 -x {4.0 0.0 9 ------- null}
h -t 0.79015 -s 3 -d 2 -p ack -e 40 -c 0 -i 26 -a 0 -x {4.0 0.0 -1 ------- null}
r -t 0.791755 -s 0 -d 2 -p tcp -e 1040 -c 0 -i 25 -a 0 -x {0.0 4.0 16 ------- null}
+ -t 0.791755 -s 2 -d 3 -p tcp -e 1040 -c 0 -i 25 -a 0 -x {0.0 4.0 16 ------- null}
r -t 0.79208 -s 2 -d 3 -p tcp -e 1040 -c 0 -i 16 -a 0 -x {0.0 4.0 10 ------- null}
+ -t 0.79208 -s 3 -d 4 -p tcp -e 1040 -c 0 -i 16 -a 0 -x {0.0 4.0 10 ------- null}
- -t 0.79208 -s 3 -d 4 -p tcp -e 1040 -c 0 -i 16 -a 0 -x {0.0 4.0 10 ------- null}
h -t 0.79208 -s 3 -d 4 -p tcp -e 1040 -c 0 -i 16 -a 0 -x {0.0 4.0 -1 ------- null}
- -t 0.79333 -s 2 -d 3 -p tcp -e 1040 -c 0 -i 19 -a 0 -x {0.0 4.0 12 ------- null}
h -t 0.79333 -s 2 -d 3 -p tcp -e 1040 -c 0 -i 19 -a 0 -x {0.0 4.0 -1 ------- null}
r -t 0.794685 -s 2 -d 0 -p ack -e 40 -c 0 -i 23 -a 0 -x {4.0 0.0 8 ------- null}
+ -t 0.794685 -s 0 -d 2 -p tcp -e 1040 -c 0 -i 27 -a 0 -x {0.0 4.0 17 ------- null}
- -t 0.794685 -s 0 -d 2 -p tcp -e 1040 -c 0 -i 27 -a 0 -x {0.0 4.0 17 ------- null}
h -t 0.794685 -s 0 -d 2 -p tcp -e 1040 -c 0 -i 27 -a 0 -x {0.0 4.0 -1 ------- null}
+ -t 0.794685 -s 0 -d 2 -p tcp -e 1040 -c 0 -i 28 -a 0 -x {0.0 4.0 18 ------- null}
- -t 0.798845 -s 0 -d 2 -p tcp -e 1040 -c 0 -i 28 -a 0 -x {0.0 4.0 18 ------- null}
h -t 0.798845 -s 0 -d 2 -p tcp -e 1040 -c 0 -i 28 -a 0 -x {0.0 4.0 -1 ------- null}
r -t 0.80124 -s 3 -d 4 -p tcp -e 1040 -c 0 -i 16 -a 0 -x {0.0 4.0 10 ------- null}
+ -t 0.80124 -s 4 -d 3 -p ack -e 40 -c 0 -i 29 -a 0 -x {4.0 0.0 10 ------- null}
- -t 0.80124 -s 4 -d 3 -p ack -e 40 -c 0 -i 29 -a 0 -x {4.0 0.0 10 ------- null}
h -t 0.80124 -s 4 -d 3 -p ack -e 40 -c 0 -i 29 -a 0 -x {4.0 0.0 -1 ------- null}
r -t 0.803845 -s 0 -d 2 -p tcp -e 1040 -c 0 -i 27 -a 0 -x {0.0 4.0 17 ------- null}
+ -t 0.803845 -s 2 -d 3 -p tcp -e 1040 -c 0 -i 27 -a 0 -x {0.0 4.0 17 ------- null}
r -t 0.805775 -s 3 -d 2 -p ack -e 40 -c 0 -i 26 -a 0 -x {4.0 0.0 9 ------- null}
+ -t 0.805775 -s 2 -d 0 -p ack -e 40 -c 0 -i 26 -a 0 -x {4.0 0.0 9 ------- null}
- -t 0.805775 -s 2 -d 0 -p ack -e 40 -c 0 -i 26 -a 0 -x {4.0 0.0 9 ------- null}
h -t 0.805775 -s 2 -d 0 -p ack -e 40 -c 0 -i 26 -a 0 -x {4.0 0.0 -1 ------- null}
r -t 0.8064 -s 4 -d 3 -p ack -e 40 -c 0 -i 29 -a 0 -x {4.0 0.0 10 ------- null}
+ -t 0.8064 -s 3 -d 2 -p ack -e 40 -c 0 -i 29 -a 0 -x {4.0 0.0 10 ------- null}
- -t 0.8064 -s 3 -d 2 -p ack -e 40 -c 0 -i 29 -a 0 -x {4.0 0.0 10 ------- null}
h -t 0.8064 -s 3 -d 2 -p ack -e 40 -c 0 -i 29 -a 0 -x {4.0 0.0 -1 ------- null}
r -t 0.808005 -s 0 -d 2 -p tcp -e 1040 -c 0 -i 28 -a 0 -x {0.0 4.0 18 ------- null}
+ -t 0.808005 -s 2 -d 3 -p tcp -e 1040 -c 0 -i 28 -a 0 -x {0.0 4.0 18 ------- null}
r -t 0.80833 -s 2 -d 3 -p tcp -e 1040 -c 0 -i 18 -a 0 -x {0.0 4.0 11 ------- null}
+ -t 0.80833 -s 3 -d 4 -p tcp -e 1040 -c 0 -i 18 -a 0 -x {0.0 4.0 11 ------- null}
- -t 0.80833 -s 3 -d 4 -p tcp -e 1040 -c 0 -i 18 -a 0 -x {0.0 4.0 11 ------- null}
h -t 0.80833 -s 3 -d 4 -p tcp -e 1040 -c 0 -i 18 -a 0 -x {0.0 4.0 -1 ------- null}
- -t 0.80958 -s 2 -d 3 -p tcp -e 1040 -c 0 -i 20 -a 0 -x {0.0 4.0 13 ------- null}
h -t 0.80958 -s 2 -d 3 -p tcp -e 1040 -c 0 -i 20 -a 0 -x {0.0 4.0 -1 ------- null}
r -t 0.810935 -s 2 -d 0 -p ack -e 40 -c 0 -i 26 -a 0 -x {4.0 0.0 9 ------- null}
+ -t 0.810935 -s 0 -d 2 -p tcp -e 1040 -c 0 -i 30 -a 0 -x {0.0 4.0 19 ------- null}
- -t 0.810935 -s 0 -d 2 -p tcp -e 1040 -c 0 -i 30 -a 0 -x {0.0 4.0 19 ------- null}
h -t 0.810935 -s 0 -d 2 -p tcp -e 1040 -c 0 -i 30 -a 0 -x {0.0 4.0 -1 ------- null}
+ -t 0.810935 -s 0 -d 2 -p tcp -e 1040 -c 0 -i 31 -a 0 -x {0.0 4.0 20 ------- null}
- -t 0.815095 -s 0 -d 2 -p tcp -e 1040 -c 0 -i 31 -a 0 -x {0.0 4.0 20 ------- null}
h -t 0.815095 -s 0 -d 2 -p tcp -e 1040 -c 0 -i 31 -a 0 -x {0.0 4.0 -1 ------- null}
r -t 0.81749 -s 3 -d 4 -p tcp -e 1040 -c 0 -i 18 -a 0 -x {0.0 4.0 11 ------- null}
+ -t 0.81749 -s 4 -d 3 -p ack -e 40 -c 0 -i 32 -a 0 -x {4.0 0.0 11 ------- null}
- -t 0.81749 -s 4 -d 3 -p ack -e 40 -c 0 -i 32 -a 0 -x {4.0 0.0 11 ------- null}
h -t 0.81749 -s 4 -d 3 -p ack -e 40 -c 0 -i 32 -a 0 -x {4.0 0.0 -1 ------- null}
r -t 0.820095 -s 0 -d 2 -p tcp -e 1040 -c 0 -i 30 -a 0 -x {0.0 4.0 19 ------- null}
+ -t 0.820095 -s 2 -d 3 -p tcp -e 1040 -c 0 -i 30 -a 0 -x {0.0 4.0 19 ------- null}
r -t 0.822025 -s 3 -d 2 -p ack -e 40 -c 0 -i 29 -a 0 -x {4.0 0.0 10 ------- null}
+ -t 0.822025 -s 2 -d 0 -p ack -e 40 -c 0 -i 29 -a 0 -x {4.0 0.0 10 ------- null}
- -t 0.822025 -s 2 -d 0 -p ack -e 40 -c 0 -i 29 -a 0 -x {4.0 0.0 10 ------- null}
h -t 0.822025 -s 2 -d 0 -p ack -e 40 -c 0 -i 29 -a 0 -x {4.0 0.0 -1 ------- null}
r -t 0.82265 -s 4 -d 3 -p ack -e 40 -c 0 -i 32 -a 0 -x {4.0 0.0 11 ------- null}
+ -t 0.82265 -s 3 -d 2 -p ack -e 40 -c 0 -i 32 -a 0 -x {4.0 0.0 11 ------- null}
- -t 0.82265 -s 3 -d 2 -p ack -e 40 -c 0 -i 32 -a 0 -x {4.0 0.0 11 ------- null}
h -t 0.82265 -s 3 -d 2 -p ack -e 40 -c 0 -i 32 -a 0 -x {4.0 0.0 -1 ------- null}
r -t 0.824255 -s 0 -d 2 -p tcp -e 1040 -c 0 -i 31 -a 0 -x {0.0 4.0 20 ------- null}
+ -t 0.824255 -s 2 -d 3 -p tcp -e 1040 -c 0 -i 31 -a 0 -x {0.0 4.0 20 ------- null}
r -t 0.82458 -s 2 -d 3 -p tcp -e 1040 -c 0 -i 19 -a 0 -x {0.0 4.0 12 ------- null}
+ -t 0.82458 -s 3 -d 4 -p tcp -e 1040 -c 0 -i 19 -a 0 -x {0.0 4.0 12 ------- null}
- -t 0.82458 -s 3 -d 4 -p tcp -e 1040 -c 0 -i 19 -a 0 -x {0.0 4.0 12 ------- null}
h -t 0.82458 -s 3 -d 4 -p tcp -e 1040 -c 0 -i 19 -a 0 -x {0.0 4.0 -1 ------- null}
- -t 0.82583 -s 2 -d 3 -p tcp -e 1040 -c 0 -i 21 -a 0 -x {0.0 4.0 14 ------- null}
h -t 0.82583 -s 2 -d 3 -p tcp -e 1040 -c 0 -i 21 -a 0 -x {0.0 4.0 -1 ------- null}
r -t 0.827185 -s 2 -d 0 -p ack -e 40 -c 0 -i 29 -a 0 -x {4.0 0.0 10 ------- null}
+ -t 0.827185 -s 0 -d 2 -p tcp -e 1040 -c 0 -i 33 -a 0 -x {0.0 4.0 21 ------- null}
- -t 0.827185 -s 0 -d 2 -p tcp -e 1040 -c 0 -i 33 -a 0 -x {0.0 4.0 21 ------- null}
h -t 0.827185 -s 0 -d 2 -p tcp -e 1040 -c 0 -i 33 -a 0 -x {0.0 4.0 -1 ------- null}
+ -t 0.827185 -s 0 -d 2 -p tcp -e 1040 -c 0 -i 34 -a 0 -x {0.0 4.0 22 ------- null}
- -t 0.831345 -s 0 -d 2 -p tcp -e 1040 -c 0 -i 34 -a 0 -x {0.0 4.0 22 ------- null}
h -t 0.831345 -s 0 -d 2 -p tcp -e 1040 -c 0 -i 34 -a 0 -x {0.0 4.0 -1 ------- null}
r -t 0.83374 -s 3 -d 4 -p tcp -e 1040 -c 0 -i 19 -a 0 -x {0.0 4.0 12 ------- null}
+ -t 0.83374 -s 4 -d 3 -p ack -e 40 -c 0 -i 35 -a 0 -x {4.0 0.0 12 ------- null}
- -t 0.83374 -s 4 -d 3 -p ack -e 40 -c 0 -i 35 -a 0 -x {4.0 0.0 12 ------- null}
h -t 0.83374 -s 4 -d 3 -p ack -e 40 -c 0 -i 35 -a 0 -x {4.0 0.0 -1 ------- null}
r -t 0.836345 -s 0 -d 2 -p tcp -e 1040 -c 0 -i 33 -a 0 -x {0.0 4.0 21 ------- null}
+ -t 0.836345 -s 2 -d 3 -p tcp -e 1040 -c 0 -i 33 -a 0 -x {0.0 4.0 21 ------- null}
r -t 0.838275 -s 3 -d 2 -p ack -e 40 -c 0 -i 32 -a 0 -x {4.0 0.0 11 ------- null}
+ -t 0.838275 -s 2 -d 0 -p ack -e 40 -c 0 -i 32 -a 0 -x {4.0 0.0 11 ------- null}
- -t 0.838275 -s 2 -d 0 -p ack -e 40 -c 0 -i 32 -a 0 -x {4.0 0.0 11 ------- null}
h -t 0.838275 -s 2 -d 0 -p ack -e 40 -c 0 -i 32 -a 0 -x {4.0 0.0 -1 ------- null}
r -t 0.8389 -s 4 -d 3 -p ack -e 40 -c 0 -i 35 -a 0 -x {4.0 0.0 12 ------- null}
+ -t 0.8389 -s 3 -d 2 -p ack -e 40 -c 0 -i 35 -a 0 -x {4.0 0.0 12 ------- null}
- -t 0.8389 -s 3 -d 2 -p ack -e 40 -c 0 -i 35 -a 0 -x {4.0 0.0 12 ------- null}
h -t 0.8389 -s 3 -d 2 -p ack -e 40 -c 0 -i 35 -a 0 -x {4.0 0.0 -1 ------- null}