V -t * -v 1.0a5 -a 0
A -t * -n 1 -p 0 -o 0x7fffffff -c 30 -a 1
A -t * -h 1 -m 1073741823 -s 0
n -t * -a 0 -s 0 -S UP -v circle -c black -i black
n -t * -a 1 -s 1 -S UP -v circle -c black -i black
n -t * -a 2 -s 2 -S UP -v circle -c black -i black
n -t * -a 3 -s 3 -S UP -v circle -c black -i black
l -t * -s 0 -d 2 -S UP -r 512000 -D 0.01 -c black
l -t * -s 1 -d 2 -S UP -r 512000 -D 0.01 -c black
l -t * -s 2 -d 3 -S UP -r 256000 -D 0.01 -c black
+ -t 0.5 -s 0 -d 2 -p tcp -e 40 -c 0 -i 0 -a 0 -x {0.0 3.0 0 ------- null}
- -t 0.5 -s 0 -d 2 -p tcp -e 40 -c 0 -i 0 -a 0 -x {0.0 3.0 0 ------- null}
h -t 0.5 -s 0 -d 2 -p tcp -e 40 -c 0 -i 0 -a 0 -x {0.0 3.0 -1 ------- null}
+ -t 0.5 -s 1 -d 2 -p cbr -e 500 -c 0 -i 1 -a 0 -x {1.0 3.1 0 ------- null}
- -t 0.5 -s 1 -d 2 -p cbr -e 500 -c 0 -i 1 -a 0 -x {1.0 3.1 0 ------- null}
h -t 0.5 -s 1 -d 2 -p cbr -e 500 -c 0 -i 1 -a 0 -x {1.0 3.1 -1 ------- null}
+ -t 0.51 -s 1 -d 2 -p cbr -e 500 -c 0 -i 2 -a 0 -x {1.0 3.1 1 ------- null}
- -t 0.51 -s 1 -d 2 -p cbr -e 500 -c 0 -i 2 -a 0 -x {1.0 3.1 1 ------- null}
h -t 0.51 -s 1 -d 2 -p cbr -e 500 -c 0 -i 2 -a 0 -x {1.0 3.1 -1 ------- null}
r -t 0.510625 -s 0 -d 2 -p tcp -e 40 -c 0 -i 0 -a 0 -x {0.0 3.0 0 ------- null}
+ -t 0.510625 -s 2 -d 3 -p tcp -e 40 -c 0 -i 0 -a 0 -x {0.0 3.0 0 ------- null}
- -t 0.510625 -s 2 -d 3 -p tcp -e 40 -c 0 -i 0 -a 0 -x {0.0 3.0 0 ------- null}
h -t 0.510625 -s 2 -d 3 -p tcp -e 40 -c 0 -i 0 -a 0 -x {0.0 3.0 -1 ------- null}
r -t 0.5178125 -s 1 -d 2 -p cbr -e 500 -c 0 -i 1 -a 0 -x {1.0 3.1 0 ------- null}
+ -t 0.5178125 -s 2 -d 3 -p cbr -e 500 -c 0 -i 1 -a 0 -x {1.0 3.1 0 ------- null}
- -t 0.5178125 -s 2 -d 3 -p cbr -e 500 -c 0 -i 1 -a 0 -x {1.0 3.1 0 ------- null}
h -t 0.5178125 -s 2 -d 3 -p cbr -e 500 -c 0 -i 1 -a 0 -x {1.0 3.1 -1 ------- null}
+ -t 0.52 -s 1 -d 2 -p cbr -e 500 -c 0 -i 3 -a 0 -x {1.0 3.1 2 ------- null}
- -t 0.52 -s 1 -d 2 -p cbr -e 500 -c 0 -i 3 -a 0 -x {1.0 3.1 2 ------- null}
h -t 0.52 -s 1 -d 2 -p cbr -e 500 -c 0 -i 3 -a 0 -x {1.0 3.1 -1 ------- null}
r -t 0.521875 -s 2 -d 3 -p tcp -e 40 -c 0 -i 0 -a 0 -x {0.0 3.0 0 ------- null}
+ -t 0.521875 -s 3 -d 2 -p ack -e 40 -c 0 -i 4 -a 0 -x {3.0 0.0 0 ------- null}
- -t 0.521875 -s 3 -d 2 -p ack -e 40 -c 0 -i 4 -a 0 -x {3.0 0.0 0 ------- null}
h -t 0.521875 -s 3 -d 2 -p ack -e 40 -c 0 -i 4 -a 0 -x {3.0 0.0 -1 ------- null}
r -t 0.5278125 -s 1 -d 2 -p cbr -e 500 -c 0 -i 2 -a 0 -x {1.0 3.1 1 ------- null}
+ -t 0.5278125 -s 2 -d 3 -p cbr -e 500 -c 0 -i 2 -a 0 -x {1.0 3.1 1 ------- null}
+ -t 0.53 -s 1 -d 2 -p cbr -e 500 -c 0 -i 5 -a 0 -x {1.0 3.1 3 ------- null}
- -t 0.53 -s 1 -d 2 -p cbr -e 500 -c 0 -i 5 -a 0 -x {1.0 3.1 3 ------- null}
h -t 0.53 -s 1 -d 2 -p cbr -e 500 -c 0 -i 5 -a 0 -x {1.0 3.1 -1 ------- null}
r -t 0.533125 -s 3 -d 2 -p ack -e 40 -c 0 -i 4 -a 0 -x {3.0 0.0 0 ------- null}
+ -t 0.533125 -s 2 -d 0 -p ack -e 40 -c 0 -i 4 -a 0 -x {3.0 0.0 0 ------- null}
- -t 0.533125 -s 2 -d 0 -p ack -e 40 -c 0 -i 4 -a 0 -x {3.0 0.0 0 ------- null}
h -t 0.533125 -s 2 -d 0 -p ack -e 40 -c 0 -i 4 -a 0 -x {3.0 0.0 -1 ------- null}
- -t 0.5334375 -s 2 -d 3 -p cbr -e 500 -c 0 -i 2 -a 0 -x {1.0 3.1 1 ------- null}
h -t 0.5334375 -s 2 -d 3 -p cbr -e 500 -c 0 -i 2 -a 0 -x {1.0 3.1 -1 ------- null}
r -t 0.5378125 -s 1 -d 2 -p cbr -e 500 -c 0 -i 3 -a 0 -x {1.0 3.1 2 ------- null}
+ -t 0.5378125 -s 2 -d 3 -p cbr -e 500 -c 0 -i 3 -a 0 -x {1.0 3.1 2 ------- null}
+ -t 0.54 -s 1 -d 2 -p cbr -e 500 -c 0 -i 6 -a 0 -x {1.0 3.1 4 ------- null}
- -t 0.54 -s 1 -d 2 -p cbr -e 500 -c 0 -i 6 -a 0 -x {1.0 3.1 4 ------- null}
h -t 0.54 -s 1 -d 2 -p cbr -e 500 -c 0 -i 6 -a 0 -x {1.0 3.1 -1 ------- null}
r -t 0.5434375 -s 2 -d 3 -p cbr -e 500 -c 0 -i 1 -a 0 -x {1.0 3.1 0 ------- null}
r -t 0.54375 -s 2 -d 0 -p ack -e 40 -c 0 -i 4 -a 0 -x {3.0 0.0 0 ------- null}
+ -t 0.54375 -s 0 -d 2 -p tcp -e 1040 -c 0 -i 7 -a 0 -x {0.0 3.0 1 ------- null}
- -t 0.54375 -s 0 -d 2 -p tcp -e 1040 -c 0 -i 7 -a 0 -x {0.0 3.0 1 ------- null}
h -t 0.54375 -s 0 -d 2 -p tcp -e 1040 -c 0 -i 7 -a 0 -x {0.0 3.0 -1 ------- null}
+ -t 0.54375 -s 0 -d 2 -p tcp -e 1040 -c 0 -i 8 -a 0 -x {0.0 3.0 2 ------- null}
r -t 0.5478125 -s 1 -d 2 -p cbr -e 500 -c 0 -i 5 -a 0 -x {1.0 3.1 3 ------- null}
+ -t 0.5478125 -s 2 -d 3 -p cbr -e 500 -c 0 -i 5 -a 0 -x {1.0 3.1 3 ------- null}
- -t 0.5490625 -s 2 -d 3 -p cbr -e 500 -c 0 -i 3 -a 0 -x {1.0 3.1 2 ------- null}
h -t 0.5490625 -s 2 -d 3 -p cbr -e 500 -c 0 -i 3 -a 0 -x {1.0 3.1 -1 ------- null}
+ -t 0.55 -s 1 -d 2 -p cbr -e 500 -c 0 -i 9 -a 0 -x {1.0 3.1 5 ------- null}
- -t 0.55 -s 1 -d 2 -p cbr -e 500 -c 0 -i 9 -a 0 -x {1.0 3.1 5 ------- null}
h -t 0.55 -s 1 -d 2 -p cbr -e 500 -c 0 -i 9 -a 0 -x {1.0 3.1 -1 ------- null}
r -t 0.5578125 -s 1 -d 2 -p cbr -e 500 -c 0 -i 6 -a 0 -x {1.0 3.1 4 ------- null}
+ -t 0.5578125 -s 2 -d 3 -p cbr -e 500 -c 0 -i 6 -a 0 -x {1.0 3.1 4 ------- null}
r -t 0.5590625 -s 2 -d 3 -p cbr -e 500 -c 0 -i 2 -a 0 -x {1.0 3.1 1 ------- null}
- -t 0.56 -s 0 -d 2 -p tcp -e 1040 -c 0 -i 8 -a 0 -x {0.0 3.0 2 ------- null}
h -t 0.56 -s 0 -d 2 -p tcp -e 1040 -c 0 -i 8 -a 0 -x {0.0 3.0 -1 ------- null}
+ -t 0.56 -s 1 -d 2 -p cbr -e 500 -c 0 -i 10 -a 0 -x {1.0 3.1 6 ------- null}
- -t 0.56 -s 1 -d 2 -p cbr -e 500 -c 0 -i 10 -a 0 -x {1.0 3.1 6 ------- null}
h -t 0.56 -s 1 -d 2 -p cbr -e 500 -c 0 -i 10 -a 0 -x {1.0 3.1 -1 ------- null}
- -t 0.5646875 -s 2 -d 3 -p cbr -e 500 -c 0 -i 5 -a 0 -x {1.0 3.1 3 ------- null}
h -t 0.5646875 -s 2 -d 3 -p cbr -e 500 -c 0 -i 5 -a 0 -x {1.0 3.1 -1 ------- null}
r -t 0.5678125 -s 1 -d 2 -p cbr -e 500 -c 0 -i 9 -a 0 -x {1.0 3.1 5 ------- null}
+ -t 0.5678125 -s 2 -d 3 -p cbr -e 500 -c 0 -i 9 -a 0 -x {1.0 3.1 5 ------- null}
r -t 0.57 -s 0 -d 2 -p tcp -e 1040 -c 0 -i 7 -a 0 -x {0.0 3.0 1 ------- null}
+ -t 0.57 -s 2 -d 3 -p tcp -e 1040 -c 0 -i 7 -a 0 -x {0.0 3.0 1 ------- null}
+ -t 0.57 -s 1 -d 2 -p cbr -e 500 -c 0 -i 11 -a 0 -x {1.0 3.1 7 ------- null}
- -t 0.57 -s 1 -d 2 -p cbr -e 500 -c 0 -i 11 -a 0 -x {1.0 3.1 7 ------- null}
h -t 0.57 -s 1 -d 2 -p cbr -e 500 -c 0 -i 11 -a 0 -x {1.0 3.1 -1 ------- null}
r -t 0.5746875 -s 2 -d 3 -p cbr -e 500 -c 0 -i 3 -a 0 -x {1.0 3.1 2 ------- null}
r -t 0.5778125 -s 1 -d 2 -p cbr -e 500 -c 0 -i 10 -a 0 -x {1.0 3.1 6 ------- null}
+ -t 0.5778125 -s 2 -d 3 -p cbr -e 500 -c 0 -i 10 -a 0 -x {1.0 3.1 6 ------- null}
+ -t 0.58 -s 1 -d 2 -p cbr -e 500 -c 0 -i 12 -a 0 -x {1.0 3.1 8 ------- null}
- -t 0.58 -s 1 -d 2 -p cbr -e 500 -c 0 -i 12 -a 0 -x {1.0 3.1 8 ------- null}
h -t 0.58 -s 1 -d 2 -p cbr -e 500 -c 0 -i 12 -a 0 -x {1.0 3.1 -1 ------- null}
- -t 0.5803125 -s 2 -d 3 -p cbr -e 500 -c 0 -i 6 -a 0 -x {1.0 3.1 4 ------- null}
h -t 0.5803125 -s 2 -d 3 -p cbr -e 500 -c 0 -i 6 -a 0 -x {1.0 3.1 -1 ------- null}
r -t 0.58625 -s 0 -d 2 -p tcp -e 1040 -c 0 -i 8 -a 0 -x {0.0 3.0 2 ------- null}
+ -t 0.58625 -s 2 -d 3 -p tcp -e 1040 -c 0 -i 8 -a 0 -x {0.0 3.0 2 ------- null}
r -t 0.5878125 -s 1 -d 2 -p cbr -e 500 -c 0 -i 11 -a 0 -x {1.0 3.1 7 ------- null}
+ -t 0.5878125 -s 2 -d 3 -p cbr -e 500 -c 0 -i 11 -a 0 -x {1.0 3.1 7 ------- null}
+ -t 0.59 -s 1 -d 2 -p cbr -e 500 -c 0 -i 13 -a 0 -x {1.0 3.1 9 ------- null}
- -t 0.59 -s 1 -d 2 -p cbr -e 500 -c 0 -i 13 -a 0 -x {1.0 3.1 9 ------- null}
h -t 0.59 -s 1 -d 2 -p cbr -e 500 -c 0 -i 13 -a 0 -x {1.0 3.1 -1 ------- null}
r -t 0.5903125 -s 2 -d 3 -p cbr -e 500 -c 0 -i 5 -a 0 -x {1.0 3.1 3 ------- null}
- -t 0.5959375 -s 2 -d 3 -p cbr -e 500 -c 0 -i 9 -a 0 -x {1.0 3.1 5 ------- null}
h -t 0.5959375 -s 2 -d 3 -p cbr -e 500 -c 0 -i 9 -a 0 -x {1.0 3.1 -1 ------- null}
r -t 0.5978125 -s 1 -d 2 -p cbr -e 500 -c 0 -i 12 -a 0 -x {1.0 3.1 8 ------- null}
+ -t 0.5978125 -s 2 -d 3 -p cbr -e 500 -c 0 -i 12 -a 0 -x {1.0 3.1 8 ------- null}
+ -t 0.6 -s 1 -d 2 -p cbr -e 500 -c 0 -i 14 -a 0 -x {1.0 3.1 10 ------- null}
- -t 0.6 -s 1 -d 2 -p cbr -e 500 -c 0 -i 14 -a 0 -x {1.0 3.1 10 ------- null}
h -t 0.6 -s 1 -d 2 -p cbr -e 500 -c 0 -i 14 -a 0 -x {1.0 3.1 -1 ------- null}
r -t 0.6059375 -s 2 -d 3 -p cbr -e 500 -c 0 -i 6 -a 0 -x {1.0 3.1 4 ------- null}
r -t 0.6078125 -s 1 -d 2 -p cbr -e 500 -c 0 -i 13 -a 0 -x {1.0 3.1 9 ------- null}
+ -t 0.6078125 -s 2 -d 3 -p cbr -e 500 -c 0 -i 13 -a 0 -x {1.0 3.1 9 ------- null}
+ -t 0.61 -s 1 -d 2 -p cbr -e 500 -c 0 -i 15 -a 0 -x {1.0 3.1 11 ------- null}
- -t 0.61 -s 1 -d 2 -p cbr -e 500 -c 0 -i 15 -a 0 -x {1.0 3.1 11 ------- null}
h -t 0.61 -s 1 -d 2 -p cbr -e 500 -c 0 -i 15 -a 0 -x {1.0 3.1 -1 ------- null}
- -t 0.6115625 -s 2 -d 3 -p tcp -e 1040 -c 0 -i 7 -a 0 -x {0.0 3.0 1 ------- null}
h -t 0.6115625 -s 2 -d 3 -p tcp -e 1040 -c 0 -i 7 -a 0 -x {0.0 3.0 -1 ------- null}
r -t 0.6178125 -s 1 -d 2 -p cbr -e 500 -c 0 -i 14 -a 0 -x {1.0 3.1 10 ------- null}
+ -t 0.6178125 -s 2 -d 3 -p cbr -e 500 -c 0 -i 14 -a 0 -x {1.0 3.1 10 ------- null}
+ -t 0.62 -s 1 -d 2 -p cbr -e 500 -c 0 -i 16 -a 0 -x {1.0 3.1 12 ------- null}
- -t 0.62 -s 1 -d 2 -p cbr -e 500 -c 0 -i 16 -a 0 -x {1.0 3.1 12 ------- null}
h -t 0.62 -s 1 -d 2 -p cbr -e 500 -c 0 -i 16 -a 0 -x {1.0 3.1 -1 ------- null}
r -t 0.6215625 -s 2 -d 3 -p cbr -e 500 -c 0 -i 9 -a 0 -x {1.0 3.1 5 ------- null}
r -t 0.6278125 -s 1 -d 2 -p cbr -e 500 -c 0 -i 15 -a 0 -x {1.0 3.1 11 ------- null}
+ -t 0.6278125 -s 2 -d 3 -p cbr -e 500 -c 0 -i 15 -a 0 -x {1.0 3.1 11 ------- null}
+ -t 0.63 -s 1 -d 2 -p cbr -e 500 -c 0 -i 17 -a 0 -x {1.0 3.1 13 ------- null}
- -t 0.63 -s 1 -d 2 -p cbr -e 500 -c 0 -i 17 -a 0 -x {1.0 3.1 13 ------- null}
h -t 0.63 -s 1 -d 2 -p cbr -e 500 -c 0 -i 17 -a 0 -x {1.0 3.1 -1 ------- null}
r -t 0.6378125 -s 1 -d 2 -p cbr -e 500 -c 0 -i 16 -a 0 -x {1.0 3.1 12 ------- null}
+ -t 0.6378125 -s 2 -d 3 -p cbr -e 500 -c 0 -i 16 -a 0 -x {1.0 3.1 12 ------- null}
+ -t 0.64 -s 1 -d 2 -p cbr -e 500 -c 0 -i 18 -a 0 -x {1.0 3.1 14 ------- null}
- -t 0.64 -s 1 -d 2 -p cbr -e 500 -c 0 -i 18 -a 0 -x {1.0 3.1 14 ------- null}
h -t 0.64 -s 1 -d 2 -p cbr -e 500 -c 0 -i 18 -a 0 -x {1.0 3.1 -1 ------- null}
- -t 0.6440625 -s 2 -d 3 -p cbr -e 500 -c 0 -i 10 -a 0 -x {1.0 3.1 6 ------- null}
h -t 0.6440625 -s 2 -d 3 -p cbr -e 500 -c 0 -i 10 -a 0 -x {1.0 3.1 -1 ------- null}
r -t 0.6478125 -s 1 -d 2 -p cbr -e 500 -c 0 -i 17 -a 0 -x {1.0 3.1 13 ------- null}
+ -t 0.6478125 -s 2 -d 3 -p cbr -e 500 -c 0 -i 17 -a 0 -x {1.0 3.1 13 ------- null}
+ -t 0.65 -s 1 -d 2 -p cbr -e 500 -c 0 -i 19 -a 0 -x {1.0 3.1 15 ------- null}
- -t 0.65 -s 1 -d 2 -p cbr -e 500 -c 0 -i 19 -a 0 -x {1.0 3.1 15 ------- null}
h -t 0.65 -s 1 -d 2 -p cbr -e 500 -c 0 -i 19 -a 0 -x {1.0 3.1 -1 ------- null}
r -t 0.6540625 -s 2 -d 3 -p tcp -e 1040 -c 0 -i 7 -a 0 -x {0.0 3.0 1 ------- null}
+ -t 0.6540625 -s 3 -d 2 -p ack -e 40 -c 0 -i 20 -a 0 -x {3.0 0.0 1 ------- null}
- -t 0.6540625 -s 3 -d 2 -p ack -e 40 -c 0 -i 20 -a 0 -x {3.0 0.0 1 ------- null}
h -t 0.6540625 -s 3 -d 2 -p ack -e 40 -c 0 -i 20 -a 0 -x {3.0 0.0 -1 ------- null}
r -t 0.6578125 -s 1 -d 2 -p cbr -e 500 -c 0 -i 18 -a 0 -x {1.0 3.1 14 ------- null}
+ -t 0.6578125 -s 2 -d 3 -p cbr -e 500 -c 0 -i 18 -a 0 -x {1.0 3.1 14 ------- null}
- -t 0.6596875 -s 2 -d 3 -p tcp -e 1040 -c 0 -i 8 -a 0 -x {0.0 3.0 2 ------- null}
h -t 0.6596875 -s 2 -d 3 -p tcp -e 1040 -c 0 -i 8 -a 0 -x {0.0 3.0 -1 ------- null}
+ -t 0.66 -s 1 -d 2 -p cbr -e 500 -c 0 -i 21 -a 0 -x {1.0 3.1 16 ------- null}
- -t 0.66 -s 1 -d 2 -p cbr -e 500 -c 0 -i 21 -a 0 -x {1.0 3.1 16 ------- null}
h -t 0.66 -s 1 -d 2 -p cbr -e 500 -c 0 -i 21 -a 0 -x {1.0 3.1 -1 ------- null}
r -t 0.6653125 -s 3 -d 2 -p ack -e 40 -c 0 -i 20 -a 0 -x {3.0 0.0 1 ------- null}
+ -t 0.6653125 -s 2 -d 0 -p ack -e 40 -c 0 -i 20 -a 0 -x {3.0 0.0 1 ------- null}
- -t 0.6653125 -s 2 -d 0 -p ack -e 40 -c 0 -i 20 -a 0 -x {3.0 0.0 1 ------- null}
h -t 0.6653125 -s 2 -d 0 -p ack -e 40 -c 0 -i 20 -a 0 -x {3.0 0.0 -1 ------- null}
r -t 0.6678125 -s 1 -d 2 -p cbr -e 500 -c 0 -i 19 -a 0 -x {1.0 3.1 15 ------- null}
+ -t 0.6678125 -s 2 -d 3 -p cbr -e 500 -c 0 -i 19 -a 0 -x {1.0 3.1 15 ------- null}
r -t 0.6696875 -s 2 -d 3 -p cbr -e 500 -c 0 -i 10 -a 0 -x {1.0 3.1 6 ------- null}
+ -t 0.67 -s 1 -d 2 -p cbr -e 500 -c 0 -i 22 -a 0 -x {1.0 3.1 17 ------- null}
- -t 0.67 -s 1 -d 2 -p cbr -e 500 -c 0 -i 22 -a 0 -x {1.0 3.1 17 ------- null}
h -t 0.67 -s 1 -d 2 -p cbr -e 500 -c 0 -i 22 -a 0 -x {1.0 3.1 -1 ------- null}
r -t 0.6759375 -s 2 -d 0 -p ack -e 40 -c 0 -i 20 -a 0 -x {3.0 0.0 1 ------- null}
+ -t 0.6759375 -s 0 -d 2 -p tcp -e 1040 -c 0 -i 23 -a 0 -x {0.0 3.0 3 ------- null}
- -t 0.6759375 -s 0 -d 2 -p tcp -e 1040 -c 0 -i 23 -a 0 -x {0.0 3.0 3 ------- null}
h -t 0.6759375 -s 0 -d 2 -p tcp -e 1040 -c 0 -i 23 -a 0 -x {0.0 3.0 -1 ------- null}
+ -t 0.6759375 -s 0 -d 2 -p tcp -e 1040 -c 0 -i 24 -a 0 -x {0.0 3.0 4 ------- null}
r -t 0.6778125 -s 1 -d 2 -p cbr -e 500 -c 0 -i 21 -a 0 -x {1.0 3.1 16 ------- null}
+ -t 0.6778125 -s 2 -d 3 -p cbr -e 500 -c 0 -i 21 -a 0 -x {1.0 3.1 16 ------- null}
d -t 0.6778125 -s 2 -d 3 -p cbr -e 500 -c 0 -i 21 -a 0 -x {1.0 3.1 16 ------- null}
+ -t 0.68 -s 1 -d 2 -p cbr -e 500 -c 0 -i 25 -a 0 -x {1.0 3.1 18 ------- null}
- -t 0.68 -s 1 -d 2 -p cbr -e 500 -c 0 -i 25 -a 0 -x {1.0 3.1 18 ------- null}
h -t 0.68 -s 1 -d 2 -p cbr -e 500 -c 0 -i 25 -a 0 -x {1.0 3.1 -1 ------- null}
r -t 0.6878125 -s 1 -d 2 -p cbr -e 500 -c 0 -i 22 -a 0 -x {1.0 3.1 17 ------- null}
+ -t 0.6878125 -s 2 -d 3 -p cbr -e 500 -c 0 -i 22 -a 0 -x {1.0 3.1 17 ------- null}
d -t 0.6878125 -s 2 -d 3 -p cbr -e 500 -c 0 -i 22 -a 0 -x {1.0 3.1 17 ------- null}
+ -t 0.69 -s 1 -d 2 -p cbr -e 500 -c 0 -i 26 -a 0 -x {1.0 3.1 19 ------- null}
- -t 0.69 -s 1 -d 2 -p cbr -e 500 -c 0 -i 26 -a 0 -x {1.0 3.1 19 ------- null}
h -t 0.69 -s 1 -d 2 -p cbr -e 500 -c 0 -i 26 -a 0 -x {1.0 3.1 -1 ------- null}
- -t 0.6921875 -s 2 -d 3 -p cbr -e 500 -c 0 -i 11 -a 0 -x {1.0 3.1 7 ------- null}
h -t 0.6921875 -s 2 -d 3 -p cbr -e 500 -c 0 -i 11 -a 0 -x {1.0 3.1 -1 ------- null}
- -t 0.6921875 -s 0 -d 2 -p tcp -e 1040 -c 0 -i 24 -a 0 -x {0.0 3.0 4 ------- null}
h -t 0.6921875 -s 0 -d 2 -p tcp -e 1040 -c 0 -i 24 -a 0 -x {0.0 3.0 -1 ------- null}
r -t 0.6978125 -s 1 -d 2 -p cbr -e 500 -c 0 -i 25 -a 0 -x {1.0 3.1 18 ------- null}
+ -t 0.6978125 -s 2 -d 3 -p cbr -e 500 -c 0 -i 25 -a 0 -x {1.0 3.1 18 ------- null}
+ -t 0.7 -s 1 -d 2 -p cbr -e 500 -c 0 -i 27 -a 0 -x {1.0 3.1 20 ------- null}
- -t 0.7 -s 1 -d 2 -p cbr -e 500 -c 0 -i 27 -a 0 -x {1.0 3.1 20 ------- null}
h -t 0.7 -s 1 -d 2 -p cbr -e 500 -c 0 -i 27 -a 0 -x {1.0 3.1 -1 ------- null}
r -t 0.7021875 -s 2 -d 3 -p tcp -e 1040 -c 0 -i 8 -a 0 -x {0.0 3.0 2 ------- null}
+ -t 0.7021875 -s 3 -d 2 -p ack -e 40 -c 0 -i 28 -a 0 -x {3.0 0.0 2 ------- null}
- -t 0.7021875 -s 3 -d 2 -p ack -e 40 -c 0 -i 28 -a 0 -x {3.0 0.0 2 ------- null}
h -t 0.7021875 -s 3 -d 2 -p ack -e 40 -c 0 -i 28 -a 0 -x {3.0 0.0 -1 ------- null}
r -t 0.7021875 -s 0 -d 2 -p tcp -e 1040 -c 0 -i 23 -a 0 -x {0.0 3.0 3 ------- null}
+ -t 0.7021875 -s 2 -d 3 -p tcp -e 1040 -c 0 -i 23 -a 0 -x {0.0 3.0 3 ------- null}
d -t 0.7021875 -s 2 -d 3 -p tcp -e 1040 -c 0 -i 23 -a 0 -x {0.0 3.0 3 ------- null}
- -t 0.7078125 -s 2 -d 3 -p cbr -e 500 -c 0 -i 12 -a 0 -x {1.0 3.1 8 ------- null}
h -t 0.7078125 -s 2 -d 3 -p cbr -e 500 -c 0 -i 12 -a 0 -x {1.0 3.1 -1 ------- null}
r -t 0.7078125 -s 1 -d 2 -p cbr -e 500 -c 0 -i 26 -a 0 -x {1.0 3.1 19 ------- null}
+ -t 0.7078125 -s 2 -d 3 -p cbr -e 500 -c 0 -i 26 -a 0 -x {1.0 3.1 19 ------- null}
+ -t 0.71 -s 1 -d 2 -p cbr -e 500 -c 0 -i 29 -a 0 -x {1.0 3.1 21 ------- null}
- -t 0.71 -s 1 -d 2 -p cbr -e 500 -c 0 -i 29 -a 0 -x {1.0 3.1 21 ------- null}
h -t 0.71 -s 1 -d 2 -p cbr -e 500 -c 0 -i 29 -a 0 -x {1.0 3.1 -1 ------- null}
r -t 0.7134375 -s 3 -d 2 -p ack -e 40 -c 0 -i 28 -a 0 -x {3.0 0.0 2 ------- null}
+ -t 0.7134375 -s 2 -d 0 -p ack -e 40 -c 0 -i 28 -a 0 -x {3.0 0.0 2 ------- null}
- -t 0.7134375 -s 2 -d 0 -p ack -e 40 -c 0 -i 28 -a 0 -x {3.0 0.0 2 ------- null}
h -t 0.7134375 -s 2 -d 0 -p ack -e 40 -c 0 -i 28 -a 0 -x {3.0 0.0 -1 ------- null}
r -t 0.7178125 -s 2 -d 3 -p cbr -e 500 -c 0 -i 11 -a 0 -x {1.0 3.1 7 ------- null}
r -t 0.7178125 -s 1 -d 2 -p cbr -e 500 -c 0 -i 27 -a 0 -x {1.0 3.1 20 ------- null}
+ -t 0.7178125 -s 2 -d 3 -p cbr -e 500 -c 0 -i 27 -a 0 -x {1.0 3.1 20 ------- null}
d -t 0.7178125 -s 2 -d 3 -p cbr -e 500 -c 0 -i 27 -a 0 -x {1.0 3.1 20 ------- null}
r -t 0.7184375 -s 0 -d 2 -p tcp -e 1040 -c 0 -i 24 -a 0 -x {0.0 3.0 4 ------- null}
+ -t 0.7184375 -s 2 -d 3 -p tcp -e 1040 -c 0 -i 24 -a 0 -x {0.0 3.0 4 ------- null}
d -t 0.7184375 -s 2 -d 3 -p tcp -e 1040 -c 0 -i 24 -a 0 -x {0.0 3.0 4 ------- null}
+ -t 0.72 -s 1 -d 2 -p cbr -e 500 -c 0 -i 30 -a 0 -x {1.0 3.1 22 ------- null}
- -t 0.72 -s 1 -d 2 -p cbr -e 500 -c 0 -i 30 -a 0 -x {1.0 3.1 22 ------- null}
h -t 0.72 -s 1 -d 2 -p cbr -e 500 -c 0 -i 30 -a 0 -x {1.0 3.1 -1 ------- null}
- -t 0.7234375 -s 2 -d 3 -p cbr -e 500 -c 0 -i 13 -a 0 -x {1.0 3.1 9 ------- null}
h -t 0.7234375 -s 2 -d 3 -p cbr -e 500 -c 0 -i 13 -a 0 -x {1.0 3.1 -1 ------- null}
r -t 0.7240625 -s 2 -d 0 -p ack -e 40 -c 0 -i 28 -a 0 -x {3.0 0.0 2 ------- null}
+ -t 0.7240625 -s 0 -d 2 -p tcp -e 1040 -c 0 -i 31 -a 0 -x {0.0 3.0 5 ------- null}
- -t 0.7240625 -s 0 -d 2 -p tcp -e 1040 -c 0 -i 31 -a 0 -x {0.0 3.0 5 ------- null}
h -t 0.7240625 -s 0 -d 2 -p tcp -e 1040 -c 0 -i 31 -a 0 -x {0.0 3.0 -1 ------- null}
+ -t 0.7240625 -s 0 -d 2 -p tcp -e 1040 -c 0 -i 32 -a 0 -x {0.0 3.0 6 ------- null}
r -t 0.7278125 -s 1 -d 2 -p cbr -e 500 -c 0 -i 29 -a 0 -x {1.0 3.1 21 ------- null}
+ -t 0.7278125 -s 2 -d 3 -p cbr -e 500 -c 0 -i 29 -a 0 -x {1.0 3.1 21 ------- null}
+ -t 0.73 -s 1 -d 2 -p cbr -e 500 -c 0 -i 33 -a 0 -x {1.0 3.1 23 ------- null}
- -t 0.73 -s 1 -d 2 -p cbr -e 500 -c 0 -i 33 -a 0 -x {1.0 3.1 23 ------- null}
h -t 0.73 -s 1 -d 2 -p cbr -e 500 -c 0 -i 33 -a 0 -x {1.0 3.1 -1 ------- null}
r -t 0.7334375 -s 2 -d 3 -p cbr -e 500 -c 0 -i 12 -a 0 -x {1.0 3.1 8 ------- null}
r -t 0.7378125 -s 1 -d 2 -p cbr -e 500 -c 0 -i 30 -a 0 -x {1.0 3.1 22 ------- null}
+ -t 0.7378125 -s 2 -d 3 -p cbr -e 500 -c 0 -i 30 -a 0 -x {1.0 3.1 22 ------- null}
d -t 0.7378125 -s 2 -d 3 -p cbr -e 500 -c 0 -i 30 -a 0 -x {1.0 3.1 22 ------- null}
- -t 0.7390625 -s 2 -d 3 -p cbr -e 500 -c 0 -i 14 -a 0 -x {1.0 3.1 10 ------- null}
h -t 0.7390625 -s 2 -d 3 -p cbr -e 500 -c 0 -i 14 -a 0 -x {1.0 3.1 -1 ------- null}
+ -t 0.74 -s 1 -d 2 -p cbr -e 500 -c 0 -i 34 -a 0 -x {1.0 3.1 24 ------- null}
- -t 0.74 -s 1 -d 2 -p cbr -e 500 -c 0 -i 34 -a 0 -x {1.0 3.1 24 ------- null}
h -t 0.74 -s 1 -d 2 -p cbr -e 500 -c 0 -i 34 -a 0 -x {1.0 3.1 -1 ------- null}
- -t 0.7403125 -s 0 -d 2 -p tcp -e 1040 -c 0 -i 32 -a 0 -x {0.0 3.0 6 ------- null}
h -t 0.7403125 -s 0 -d 2 -p tcp -e 1040 -c 0 -i 32 -a 0 -x {0.0 3.0 -1 ------- null}
r -t 0.7478125 -s 1 -d 2 -p cbr -e 500 -c 0 -i 33 -a 0 -x {1.0 3.1 23 ------- null}
+ -t 0.7478125 -s 2 -d 3 -p cbr -e 500 -c 0 -i 33 -a 0 -x {1.0 3.1 23 ------- null}
r -t 0.7490625 -s 2 -d 3 -p cbr -e 500 -c 0 -i 13 -a 0 -x {1.0 3.1 9 ------- null}
+ -t 0.75 -s 1 -d 2 -p cbr -e 500 -c 0 -i 35 -a 0 -x {1.0 3.1 25 ------- null}
- -t 0.75 -s 1 -d 2 -p cbr -e 500 -c 0 -i 35 -a 0 -x {1.0 3.1 25 ------- null}
h -t 0.75 -s 1 -d 2 -p cbr -e 500 -c 0 -i 35 -a 0 -x {1.0 3.1 -1 ------- null}
r -t 0.7503125 -s 0 -d 2 -p tcp -e 1040 -c 0 -i 31 -a 0 -x {0.0 3.0 5 ------- null}
+ -t 0.7503125 -s 2 -d 3 -p tcp -e 1040 -c 0 -i 31 -a 0 -x {0.0 3.0 5 ------- null}
d -t 0.7503125 -s 2 -d 3 -p tcp -e 1040 -c 0 -i 31 -a 0 -x {0.0 3.0 5 ------- null}
- -t 0.7546875 -s 2 -d 3 -p cbr -e 500 -c 0 -i 15 -a 0 -x {1.0 3.1 11 ------- null}
h -t 0.7546875 -s 2 -d 3 -p cbr -e 500 -c 0 -i 15 -a 0 -x {1.0 3.1 -1 ------- null}
r -t 0.7578125 -s 1 -d 2 -p cbr -e 500 -c 0 -i 34 -a 0 -x {1.0 3.1 24 ------- null}
+ -t 0.7578125 -s 2 -d 3 -p cbr -e 500 -c 0 -i 34 -a 0 -x {1.0 3.1 24 ------- null}
+ -t 0.76 -s 1 -d 2 -p cbr -e 500 -c 0 -i 36 -a 0 -x {1.0 3.1 26 ------- null}
- -t 0.76 -s 1 -d 2 -p cbr -e 500 -c 0 -i 36 -a 0 -x {1.0 3.1 26 ------- null}
h -t 0.76 -s 1 -d 2 -p cbr -e 500 -c 0 -i 36 -a 0 -x {1.0 3.1 -1 ------- null}
r -t 0.7646875 -s 2 -d 3 -p cbr -e 500 -c 0 -i 14 -a 0 -x {1.0 3.1 10 ------- null}
r -t 0.7665625 -s 0 -d 2 -p tcp -e 1040 -c 0 -i 32 -a 0 -x {0.0 3.0 6 ------- null}
+ -t 0.7665625 -s 2 -d 3 -p tcp -e 1040 -c 0 -i 32 -a 0 -x {0.0 3.0 6 ------- null}
d -t 0.7665625 -s 2 -d 3 -p tcp -e 1040 -c 0 -i 32 -a 0 -x {0.0 3.0 6 ------- null}
r -t 0.7678125 -s 1 -d 2 -p cbr -e 500 -c 0 -i 35 -a 0 -x {1.0 3.1 25 ------- null}
+ -t 0.7678125 -s 2 -d 3 -p cbr -e 500 -c 0 -i 35 -a 0 -x {1.0 3.1 25 ------- null}
d -t 0.7678125 -s 2 -d 3 -p cbr -e 500 -c 0 -i 35 -a 0 -x {1.0 3.1 25 ------- null}
+ -t 0.77 -s 1 -d 2 -p cbr -e 500 -c 0 -i 37 -a 0 -x {1.0 3.1 27 ------- null}
- -t 0.77 -s 1 -d 2 -p cbr -e 500 -c 0 -i 37 -a 0 -x {1.0 3.1 27 ------- null}
h -t 0.77 -s 1 -d 2 -p cbr -e 500 -c 0 -i 37 -a 0 -x {1.0 3.1 -1 ------- null}
- -t 0.7703125 -s 2 -d 3 -p cbr -e 500 -c 0 -i 16 -a 0 -x {1.0 3.1 12 ------- null}
h -t 0.7703125 -s 2 -d 3 -p cbr -e 500 -c 0 -i 16 -a 0 -x {1.0 3.1 -1 ------- null}
r -t 0.7778125 -s 1 -d 2 -p cbr -e 500 -c 0 -i 36 -a 0 -x {1.0 3.1 26 ------- null}
+ -t 0.7778125 -s 2 -d 3 -p cbr -e 500 -c 0 -i 36 -a 0 -x {1.0 3.1 26 ------- null}
+ -t 0.78 -s 1 -d 2 -p cbr -e 500 -c 0 -i 38 -a 0 -x {1.0 3.1 28 ------- null}
- -t 0.78 -s 1 -d 2 -p cbr -e 500 -c 0 -i 38 -a 0 -x {1.0 3.1 28 ------- null}
h -t 0.78 -s 1 -d 2 -p cbr -e 500 -c 0 -i 38 -a 0 -x {1.0 3.1 -1 ------- null}
r -t 0.7803125 -s 2 -d 3 -p cbr -e 500 -c 0 -i 15 -a 0 -x {1.0 3.1 11 ------- null}
- -t 0.7859375 -s 2 -d 3 -p cbr -e 500 -c 0 -i 17 -a 0 -x {1.0 3.1 13 ------- null}
h -t 0.7859375 -s 2 -d 3 -p cbr -e 500 -c 0 -i 17 -a 0 -x {1.0 3.1 -1 ------- null}
r -t 0.7878125 -s 1 -d 2 -p cbr -e 500 -c 0 -i 37 -a 0 -x {1.0 3.1 27 ------- null}
+ -t 0.7878125 -s 2 -d 3 -p cbr -e 500 -c 0 -i 37 -a 0 -x {1.0 3.1 27 ------- null}
+ -t 0.79 -s 1 -d 2 -p cbr -e 500 -c 0 -i 39 -a 0 -x {1.0 3.1 29 ------- null}
- -t 0.79 -s 1 -d 2 -p cbr -e 500 -c 0 -i 39 -a 0 -x {1.0 3.1 29 ------- null}
h -t 0.79 -s 1 -d 2 -p cbr -e 500 -c 0 -i 39 -a 0 -x {1.0 3.1 -1 ------- null}
r -t 0.7959375 -s 2 -d 3 -p cbr -e 500 -c 0 -i 16 -a 0 -x {1.0 3.1 12 ------- null}
r -t 0.7978125 -s 1 -d 2 -p cbr -e 500 -c 0 -i 38 -a 0 -x {1.0 3.1 28 ------- null}
+ -t 0.7978125 -s 2 -d 3 -p cbr -e 500 -c 0 -i 38 -a 0 -x {1.0 3.1 28 ------- null}
d -t 0.7978125 -s 2 -d 3 -p cbr -e 500 -c 0 -i 38 -a 0 -x {1.0 3.1 28 ------- null}
+ -t 0.8 -s 1 -d 2 -p cbr -e 500 -c 0 -i 40 -a 0 -x {1.0 3.1 30 ------- null}
- -t 0.8 -s 1 -d 2 -p cbr -e 500 -c 0 -i 40 -a 0 -x {1.0 3.1 30 ------- null}
h -t 0.8 -s 1 -d 2 -p cbr -e 500 -c 0 -i 40 -a 0 -x {1.0 3.1 -1 ------- null}
- -t 0.8015625 -s 2 -d 3 -p cbr -e 500 -c 0 -i 18 -a 0 -x {1.0 3.1 14 ------- null}
h -t 0.8015625 -s 2 -d 3 -p cbr -e 500 -c 0 -i 18 -a 0 -x {1.0 3.1 -1 ------- null}
r -t 0.8078125 -s 1 -d 2 -p cbr -e 500 -c 0 -i 39 -a 0 -x {1.0 3.1 29 ------- null}
+ -t 0.8078125 -s 2 -d 3 -p cbr -e 500 -c 0 -i 39 -a 0 -x {1.0 3.1 29 ------- null}
+ -t 0.81 -s 1 -d 2 -p cbr -e 500 -c 0 -i 41 -a 0 -x {1.0 3.1 31 ------- null}
- -t 0.81 -s 1 -d 2 -p cbr -e 500 -c 0 -i 41 -a 0 -x {1.0 3.1 31 ------- null}
h -t 0.81 -s 1 -d 2 -p cbr -e 500 -c 0 -i 41 -a 0 -x {1.0 3.1 -1 ------- null}
r -t 0.8115625 -s 2 -d 3 -p cbr -e 500 -c 0 -i 17 -a 0 -x {1.0 3.1 13 ------- null}
- -t 0.8171875 -s 2 -d 3 -p cbr -e 500 -c 0 -i 19 -a 0 -x {1.0 3.1 15 ------- null}
h -t 0.8171875 -s 2 -d 3 -p cbr -e 500 -c 0 -i 19 -a 0 -x {1.0 3.1 -1 ------- null}
r -t 0.8178125 -s 1 -d 2 -p cbr -e 500 -c 0 -i 40 -a 0 -x {1.0 3.1 30 ------- null}
+ -t 0.8178125 -s 2 -d 3 -p cbr -e 500 -c 0 -i 40 -a 0 -x {1.0 3.1 30 ------- null}
+ -t 0.82 -s 1 -d 2 -p cbr -e 500 -c 0 -i 42 -a 0 -x {1.0 3.1 32 ------- null}
- -t 0.82 -s 1 -d 2 -p cbr -e 500 -c 0 -i 42 -a 0 -x {1.0 3.1 32 ------- null}
h -t 0.82 -s 1 -d 2 -p cbr -e 500 -c 0 -i 42 -a 0 -x {1.0 3.1 -1 ------- null}
r -t 0.8271875 -s 2 -d 3 -p cbr -e 500 -c 0 -i 18 -a 0 -x {1.0 3.1 14 ------- null}
r -t 0.8278125 -s 1 -d 2 -p cbr -e 500 -c 0 -i 41 -a 0 -x {1.0 3.1 31 ------- null}
+ -t 0.8278125 -s 2 -d 3 -p cbr -e 500 -c 0 -i 41 -a 0 -x {1.0 3.1 31 ------- null}
d -t 0.8278125 -s 2 -d 3 -p cbr -e 500 -c 0 -i 41 -a 0 -x {1.0 3.1 31 ------- null}
+ -t 0.83 -s 1 -d 2 -p cbr -e 500 -c 0 -i 43 -a 0 -x {1.0 3.1 33 ------- null}
- -t 0.83 -s 1 -d 2 -p cbr -e 500 -c 0 -i 43 -a 0 -x {1.0 3.1 33 ------- null}
h -t 0.83 -s 1 -d 2 -p cbr -e 500 -c 0 -i 43 -a 0 -x {1.0 3.1 -1 ------- null}
- -t 0.8328125 -s 2 -d 3 -p cbr -e 500 -c 0 -i 25 -a 0 -x {1.0 3.1 18 ------- null}
h -t 0.8328125 -s 2 -d 3 -p cbr -e 500 -c 0 -i 25 -a 0 -x {1.0 3.1 -1 ------- null}
r -t 0.8378125 -s 1 -d 2 -p cbr -e 500 -c 0 -i 42 -a 0 -x {1.0 3.1 32 ------- null}
+ -t 0.8378125 -s 2 -d 3 -p cbr -e 500 -c 0 -i 42 -a 0 -x {1.0 3.1 32 ------- null}
+ -t 0.84 -s 1 -d 2 -p cbr -e 500 -c 0 -i 44 -a 0 -x {1.0 3.1 34 ------- null}
- -t 0.84 -s 1 -d 2 -p cbr -e 500 -c 0 -i 44 -a 0 -x {1.0 3.1 34 ------- null}
h -t 0.84 -s 1 -d 2 -p cbr -e 500 -c 0 -i 44 -a 0 -x {1.0 3.1 -1 ------- null}
r -t 0.8428125 -s 2 -d 3 -p cbr -e 500 -c 0 -i 19 -a 0 -x {1.0 3.1 15 ------- null}
r -t 0.8478125 -s 1 -d 2 -p cbr -e 500 -c 0 -i 43 -a 0 -x {1.0 3.1 33 ------- null}
+ -t 0.8478125 -s 2 -d 3 -p cbr -e 500 -c 0 -i 43 -a 0 -x {1.0 3.1 33 ------- null}
d -t 0.8478125 -s 2 -d 3 -p cbr -e 500 -c 0 -i 43 -a 0 -x {1.0 3.1 33 ------- null}
- -t 0.8484375 -s 2 -d 3 -p cbr -e 500 -c 0 -i 26 -a 0 -x {1.0 3.1 19 ------- null}
h -t 0.8484375 -s 2 -d 3 -p cbr -e 500 -c 0 -i 26 -a 0 -x {1.0 3.1 -1 ------- null}
+ -t 0.85 -s 1 -d 2 -p cbr -e 500 -c 0 -i 45 -a 0 -x {1.0 3.1 35 ------- null}
- -t 0.85 -s 1 -d 2 -p cbr -e 500 -c 0 -i 45 -a 0 -x {1.0 3.1 35 ------- null}
h -t 0.85 -s 1 -d 2 -p cbr -e 500 -c 0 -i 45 -a 0 -x {1.0 3.1 -1 ------- null}
r -t 0.8578125 -s 1 -d 2 -p cbr -e 500 -c 0 -i 44 -a 0 -x {1.0 3.1 34 ------- null}
+ -t 0.8578125 -s 2 -d 3 -p cbr -e 500 -c 0 -i 44 -a 0 -x {1.0 3.1 34 ------- null}
r -t 0.8584375 -s 2 -d 3 -p cbr -e 500 -c 0 -i 25 -a 0 -x {1.0 3.1 18 ------- null}
+ -t 0.86 -s 1 -d 2 -p cbr -e 500 -c 0 -i 46 -a 0 -x {1.0 3.1 36 ------- null}
- -t 0.86 -s 1 -d 2 -p cbr -e 500 -c 0 -i 46 -a 0 -x {1.0 3.1 36 ------- null}
h -t 0.86 -s 1 -d 2 -p cbr -e 500 -c 0 -i 46 -a 0 -x {1.0 3.1 -1 ------- null}
- -t 0.8640625 -s 2 -d 3 -p cbr -e 500 -c 0 -i 29 -a 0 -x {1.0 3.1 21 ------- null}
h -t 0.8640625 -s 2 -d 3 -p cbr -e 500 -c 0 -i 29 -a 0 -x {1.0 3.1 -1 ------- null}
r -t 0.8678125 -s 1 -d 2 -p cbr -e 500 -c 0 -i 45 -a 0 -x {1.0 3.1 35 ------- null}
+ -t 0.8678125 -s 2 -d 3 -p cbr -e 500 -c 0 -i 45 -a 0 -x {1.0 3.1 35 ------- null}
+ -t 0.87 -s 1 -d 2 -p cbr -e 500 -c 0 -i 47 -a 0 -x {1.0 3.1 37 ------- null}
- -t 0.87 -s 1 -d 2 -p cbr -e 500 -c 0 -i 47 -a 0 -x {1.0 3.1 37 ------- null}
h -t 0.87 -s 1 -d 2 -p cbr -e 500 -c 0 -i 47 -a 0 -x {1.0 3.1 -1 ------- null}
r -t 0.8740625 -s 2 -d 3 -p cbr -e 500 -c 0 -i 26 -a 0 -x {1.0 3.1 19 ------- null}
r -t 0.8778125 -s 1 -d 2 -p cbr -e 500 -c 0 -i 46 -a 0 -x {1.0 3.1 36 ------- null}
+ -t 0.8778125 -s 2 -d 3 -p cbr -e 500 -c 0 -i 46 -a 0 -x {1.0 3.1 36 ------- null}
d -t 0.8778125 -s 2 -d 3 -p cbr -e 500 -c 0 -i 46 -a 0 -x {1.0 3.1 36 ------- null}
- -t 0.8796875 -s 2 -d 3 -p cbr -e 500 -c 0 -i 33 -a 0 -x {1.0 3.1 23 ------- null}
h -t 0.8796875 -s 2 -d 3 -p cbr -e 500 -c 0 -i 33 -a 0 -x {1.0 3.1 -1 ------- null}
+ -t 0.88 -s 1 -d 2 -p cbr -e 500 -c 0 -i 48 -a 0 -x {1.0 3.1 38 ------- null}
- -t 0.88 -s 1 -d 2 -p cbr -e 500 -c 0 -i 48 -a 0 -x {1.0 3.1 38 ------- null}
h -t 0.88 -s 1 -d 2 -p cbr -e 500 -c 0 -i 48 -a 0 -x {1.0 3.1 -1 ------- null}
r -t 0.8878125 -s 1 -d 2 -p cbr -e 500 -c 0 -i 47 -a 0 -x {1.0 3.1 37 ------- null}
+ -t 0.8878125 -s 2 -d 3 -p cbr -e 500 -c 0 -i 47 -a 0 -x {1.0 3.1 37 ------- null}
r -t 0.8896875 -s 2 -d 3 -p cbr -e 500 -c 0 -i 29 -a 0 -x {1.0 3.1 21 ------- null}
+ -t 0.89 -s 1 -d 2 -p cbr -e 500 -c 0 -i 49 -a 0 -x {1.0 3.1 39 ------- null}
- -t 0.89 -s 1 -d 2 -p cbr -e 500 -c 0 -i 49 -a 0 -x {1.0 3.1 39 ------- null}
h -t 0.89 -s 1 -d 2 -p cbr -e 500 -c 0 -i 49 -a 0 -x {1.0 3.1 -1 ------- null}
- -t 0.8953125 -s 2 -d 3 -p cbr -e 500 -c 0 -i 34 -a 0 -x {1.0 3.1 24 ------- null}
h -t 0.8953125 -s 2 -d 3 -p cbr -e 500 -c 0 -i 34 -a 0 -x {1.0 3.1 -1 ------- null}
r -t 0.8978125 -s 1 -d 2 -p cbr -e 500 -c 0 -i 48 -a 0 -x {1.0 3.1 38 ------- null}
+ -t 0.8978125 -s 2 -d 3 -p cbr -e 500 -c 0 -i 48 -a 0 -x {1.0 3.1 38 ------- null}
+ -t 0.9 -s 1 -d 2 -p cbr -e 500 -c 0 -i 50 -a 0 -x {1.0 3.1 40 ------- null}
- -t 0.9 -s 1 -d 2 -p cbr -e 500 -c 0 -i 50 -a 0 -x {1.0 3.1 40 ------- null}
h -t 0.9 -s 1 -d 2 -p cbr -e 500 -c 0 -i 50 -a 0 -x {1.0 3.1 -1 ------- null}
r -t 0.9053125 -s 2 -d 3 -p cbr -e 500 -c 0 -i 33 -a 0 -x {1.0 3.1 23 ------- null}
r -t 0.9078125 -s 1 -d 2 -p cbr -e 500 -c 0 -i 49 -a 0 -x {1.0 3.1 39 ------- null}
+ -t 0.9078125 -s 2 -d 3 -p cbr -e 500 -c 0 -i 49 -a 0 -x {1.0 3.1 39 ------- null}
d -t 0.9078125 -s 2 -d 3 -p cbr -e 500 -c 0 -i 49 -a 0 -x {1.0 3.1 39 ------- null}
+ -t 0.91 -s 1 -d 2 -p cbr -e 500 -c 0 -i 51 -a 0 -x {1.0 3.1 41 ------- null}
- -t 0.91 -s 1 -d 2 -p cbr -e 500 -c 0 -i 51 -a 0 -x {1.0 3.1 41 ------- null}
h -t 0.91 -s 1 -d 2 -p cbr -e 500 -c 0 -i 51 -a 0 -x {1.0 3.1 -1 ------- null}
- -t 0.9109375 -s 2 -d 3 -p cbr -e 500 -c 0 -i 36 -a 0 -x {1.0 3.1 26 ------- null}
h -t 0.9109375 -s 2 -d 3 -p cbr -e 500 -c 0 -i 36 -a 0 -x {1.0 3.1 -1 ------- null}
r -t 0.9178125 -s 1 -d 2 -p cbr -e 500 -c 0 -i 50 -a 0 -x {1.0 3.1 40 ------- null}
+ -t 0.9178125 -s 2 -d 3 -p cbr -e 500 -c 0 -i 50 -a 0 -x {1.0 3.1 40 ------- null}
+ -t 0.92 -s 1 -d 2 -p cbr -e 500 -c 0 -i 52 -a 0 -x {1.0 3.1 42 ------- null}
- -t 0.92 -s 1 -d 2 -p cbr -e 500 -c 0 -i 52 -a 0 -x {1.0 3.1 42 ------- null}
h -t 0.92 -s 1 -d 2 -p cbr -e 500 -c 0 -i 52 -a 0 -x {1.0 3.1 -1 ------- null}
r -t 0.9209375 -s 2 -d 3 -p cbr -e 500 -c 0 -i 34 -a 0 -x {1.0 3.1 24 ------- null}
- -t 0.9265625 -s 2 -d 3 -p cbr -e 500 -c 0 -i 37 -a 0 -x {1.0 3.1 27 ------- null}
h -t 0.9265625 -s 2 -d 3 -p cbr -e 500 -c 0 -i 37 -a 0 -x {1.0 3.1 -1 ------- null}
r -t 0.9278125 -s 1 -d 2 -p cbr -e 500 -c 0 -i 51 -a 0 -x {1.0 3.1 41 ------- null}
+ -t 0.9278125 -s 2 -d 3 -p cbr -e 500 -c 0 -i 51 -a 0 -x {1.0 3.1 41 ------- null}