V -t * -v 1.0a5 -a 0
A -t * -n 1 -p 0 -o 0x7fffffff -c 30 -a 1
A -t * -h 1 -m 1073741823 -s 0
n -t * -a 4 -s 4 -S UP -v circle -c black -i black
n -t * -a 0 -s 0 -S UP -v circle -c black -i black
n -t * -a 1 -s 1 -S UP -v circle -c black -i black
n -t * -a 2 -s 2 -S UP -v circle -c black -i black
n -t * -a 3 -s 3 -S UP -v circle -c black -i black
l -t * -s 0 -d 2 -S UP -r 2000000 -D 0.0050000000000000001 -c black
l -t * -s 1 -d 2 -S UP -r 2000000 -D 0.0050000000000000001 -c black
l -t * -s 2 -d 3 -S UP -r 512000 -D 0.01 -c black
l -t * -s 3 -d 4 -S UP -r 2000000 -D 0.0050000000000000001 -c black
+ -t 0.5 -s 0 -d 2 -p cbr -e 512 -c 0 -i 0 -a 0 -x {0.0 4.0 0 ------- null}
- -t 0.5 -s 0 -d 2 -p cbr -e 512 -c 0 -i 0 -a 0 -x {0.0 4.0 0 ------- null}
h -t 0.5 -s 0 -d 2 -p cbr -e 512 -c 0 -i 0 -a 0 -x {0.0 4.0 -1 ------- null}
+ -t 0.5 -s 1 -d 2 -p cbr -e 512 -c 0 -i 1 -a 0 -x {1.0 4.1 0 ------- null}
- -t 0.5 -s 1 -d 2 -p cbr -e 512 -c 0 -i 1 -a 0 -x {1.0 4.1 0 ------- null}
h -t 0.5 -s 1 -d 2 -p cbr -e 512 -c 0 -i 1 -a 0 -x {1.0 4.1 -1 ------- null}
+ -t 0.505 -s 0 -d 2 -p cbr -e 512 -c 0 -i 2 -a 0 -x {0.0 4.0 1 ------- null}
- -t 0.505 -s 0 -d 2 -p cbr -e 512 -c 0 -i 2 -a 0 -x {0.0 4.0 1 ------- null}
h -t 0.505 -s 0 -d 2 -p cbr -e 512 -c 0 -i 2 -a 0 -x {0.0 4.0 -1 ------- null}
+ -t 0.505 -s 1 -d 2 -p cbr -e 512 -c 0 -i 3 -a 0 -x {1.0 4.1 1 ------- null}
- -t 0.505 -s 1 -d 2 -p cbr -e 512 -c 0 -i 3 -a 0 -x {1.0 4.1 1 ------- null}
h -t 0.505 -s 1 -d 2 -p cbr -e 512 -c 0 -i 3 -a 0 -x {1.0 4.1 -1 ------- null}
r -t 0.507048 -s 0 -d 2 -p cbr -e 512 -c 0 -i 0 -a 0 -x {0.0 4.0 0 ------- null}
+ -t 0.507048 -s 2 -d 3 -p cbr -e 512 -c 0 -i 0 -a 0 -x {0.0 4.0 0 ------- null}
- -t 0.507048 -s 2 -d 3 -p cbr -e 512 -c 0 -i 0 -a 0 -x {0.0 4.0 0 ------- null}
h -t 0.507048 -s 2 -d 3 -p cbr -e 512 -c 0 -i 0 -a 0 -x {0.0 4.0 -1 ------- null}
r -t 0.507048 -s 1 -d 2 -p cbr -e 512 -c 0 -i 1 -a 0 -x {1.0 4.1 0 ------- null}
+ -t 0.507048 -s 2 -d 3 -p cbr -e 512 -c 0 -i 1 -a 0 -x {1.0 4.1 0 ------- null}
+ -t 0.51 -s 0 -d 2 -p cbr -e 512 -c 0 -i 4 -a 0 -x {0.0 4.0 2 ------- null}
- -t 0.51 -s 0 -d 2 -p cbr -e 512 -c 0 -i 4 -a 0 -x {0.0 4.0 2 ------- null}
h -t 0.51 -s 0 -d 2 -p cbr -e 512 -c 0 -i 4 -a 0 -x {0.0 4.0 -1 ------- null}
+ -t 0.51 -s 1 -d 2 -p cbr -e 512 -c 0 -i 5 -a 0 -x {1.0 4.1 2 ------- null}
- -t 0.51 -s 1 -d 2 -p cbr -e 512 -c 0 -i 5 -a 0 -x {1.0 4.1 2 ------- null}
h -t 0.51 -s 1 -d 2 -p cbr -e 512 -c 0 -i 5 -a 0 -x {1.0 4.1 -1 ------- null}
r -t 0.512048 -s 0 -d 2 -p cbr -e 512 -c 0 -i 2 -a 0 -x {0.0 4.0 1 ------- null}
+ -t 0.512048 -s 2 -d 3 -p cbr -e 512 -c 0 -i 2 -a 0 -x {0.0 4.0 1 ------- null}
r -t 0.512048 -s 1 -d 2 -p cbr -e 512 -c 0 -i 3 -a 0 -x {1.0 4.1 1 ------- null}
+ -t 0.512048 -s 2 -d 3 -p cbr -e 512 -c 0 -i 3 -a 0 -x {1.0 4.1 1 ------- null}
+ -t 0.515 -s 0 -d 2 -p cbr -e 512 -c 0 -i 6 -a 0 -x {0.0 4.0 3 ------- null}
- -t 0.515 -s 0 -d 2 -p cbr -e 512 -c 0 -i 6 -a 0 -x {0.0 4.0 3 ------- null}
h -t 0.515 -s 0 -d 2 -p cbr -e 512 -c 0 -i 6 -a 0 -x {0.0 4.0 -1 ------- null}
+ -t 0.515 -s 1 -d 2 -p cbr -e 512 -c 0 -i 7 -a 0 -x {1.0 4.1 3 ------- null}
- -t 0.515 -s 1 -d 2 -p cbr -e 512 -c 0 -i 7 -a 0 -x {1.0 4.1 3 ------- null}
h -t 0.515 -s 1 -d 2 -p cbr -e 512 -c 0 -i 7 -a 0 -x {1.0 4.1 -1 ------- null}
- -t 0.515048 -s 2 -d 3 -p cbr -e 512 -c 0 -i 1 -a 0 -x {1.0 4.1 0 ------- null}
h -t 0.515048 -s 2 -d 3 -p cbr -e 512 -c 0 -i 1 -a 0 -x {1.0 4.1 -1 ------- null}
r -t 0.517048 -s 0 -d 2 -p cbr -e 512 -c 0 -i 4 -a 0 -x {0.0 4.0 2 ------- null}
+ -t 0.517048 -s 2 -d 3 -p cbr -e 512 -c 0 -i 4 -a 0 -x {0.0 4.0 2 ------- null}
r -t 0.517048 -s 1 -d 2 -p cbr -e 512 -c 0 -i 5 -a 0 -x {1.0 4.1 2 ------- null}
+ -t 0.517048 -s 2 -d 3 -p cbr -e 512 -c 0 -i 5 -a 0 -x {1.0 4.1 2 ------- null}
+ -t 0.52 -s 0 -d 2 -p cbr -e 512 -c 0 -i 8 -a 0 -x {0.0 4.0 4 ------- null}
- -t 0.52 -s 0 -d 2 -p cbr -e 512 -c 0 -i 8 -a 0 -x {0.0 4.0 4 ------- null}
h -t 0.52 -s 0 -d 2 -p cbr -e 512 -c 0 -i 8 -a 0 -x {0.0 4.0 -1 ------- null}
+ -t 0.52 -s 1 -d 2 -p cbr -e 512 -c 0 -i 9 -a 0 -x {1.0 4.1 4 ------- null}
- -t 0.52 -s 1 -d 2 -p cbr -e 512 -c 0 -i 9 -a 0 -x {1.0 4.1 4 ------- null}
h -t 0.52 -s 1 -d 2 -p cbr -e 512 -c 0 -i 9 -a 0 -x {1.0 4.1 -1 ------- null}
r -t 0.522048 -s 0 -d 2 -p cbr -e 512 -c 0 -i 6 -a 0 -x {0.0 4.0 3 ------- null}
+ -t 0.522048 -s 2 -d 3 -p cbr -e 512 -c 0 -i 6 -a 0 -x {0.0 4.0 3 ------- null}
d -t 0.522048 -s 2 -d 3 -p cbr -e 512 -c 0 -i 6 -a 0 -x {0.0 4.0 3 ------- null}
r -t 0.522048 -s 1 -d 2 -p cbr -e 512 -c 0 -i 7 -a 0 -x {1.0 4.1 3 ------- null}
+ -t 0.522048 -s 2 -d 3 -p cbr -e 512 -c 0 -i 7 -a 0 -x {1.0 4.1 3 ------- null}
d -t 0.522048 -s 2 -d 3 -p cbr -e 512 -c 0 -i 7 -a 0 -x {1.0 4.1 3 ------- null}
- -t 0.523048 -s 2 -d 3 -p cbr -e 512 -c 0 -i 2 -a 0 -x {0.0 4.0 1 ------- null}
h -t 0.523048 -s 2 -d 3 -p cbr -e 512 -c 0 -i 2 -a 0 -x {0.0 4.0 -1 ------- null}
+ -t 0.525 -s 0 -d 2 -p cbr -e 512 -c 0 -i 10 -a 0 -x {0.0 4.0 5 ------- null}
- -t 0.525 -s 0 -d 2 -p cbr -e 512 -c 0 -i 10 -a 0 -x {0.0 4.0 5 ------- null}
h -t 0.525 -s 0 -d 2 -p cbr -e 512 -c 0 -i 10 -a 0 -x {0.0 4.0 -1 ------- null}
+ -t 0.525 -s 1 -d 2 -p cbr -e 512 -c 0 -i 11 -a 0 -x {1.0 4.1 5 ------- null}
- -t 0.525 -s 1 -d 2 -p cbr -e 512 -c 0 -i 11 -a 0 -x {1.0 4.1 5 ------- null}
h -t 0.525 -s 1 -d 2 -p cbr -e 512 -c 0 -i 11 -a 0 -x {1.0 4.1 -1 ------- null}
r -t 0.525048 -s 2 -d 3 -p cbr -e 512 -c 0 -i 0 -a 0 -x {0.0 4.0 0 ------- null}
+ -t 0.525048 -s 3 -d 4 -p cbr -e 512 -c 0 -i 0 -a 0 -x {0.0 4.0 0 ------- null}
- -t 0.525048 -s 3 -d 4 -p cbr -e 512 -c 0 -i 0 -a 0 -x {0.0 4.0 0 ------- null}
h -t 0.525048 -s 3 -d 4 -p cbr -e 512 -c 0 -i 0 -a 0 -x {0.0 4.0 -1 ------- null}
r -t 0.527048 -s 0 -d 2 -p cbr -e 512 -c 0 -i 8 -a 0 -x {0.0 4.0 4 ------- null}
+ -t 0.527048 -s 2 -d 3 -p cbr -e 512 -c 0 -i 8 -a 0 -x {0.0 4.0 4 ------- null}
r -t 0.527048 -s 1 -d 2 -p cbr -e 512 -c 0 -i 9 -a 0 -x {1.0 4.1 4 ------- null}
+ -t 0.527048 -s 2 -d 3 -p cbr -e 512 -c 0 -i 9 -a 0 -x {1.0 4.1 4 ------- null}
d -t 0.527048 -s 2 -d 3 -p cbr -e 512 -c 0 -i 9 -a 0 -x {1.0 4.1 4 ------- null}
+ -t 0.53 -s 0 -d 2 -p cbr -e 512 -c 0 -i 12 -a 0 -x {0.0 4.0 6 ------- null}
- -t 0.53 -s 0 -d 2 -p cbr -e 512 -c 0 -i 12 -a 0 -x {0.0 4.0 6 ------- null}
h -t 0.53 -s 0 -d 2 -p cbr -e 512 -c 0 -i 12 -a 0 -x {0.0 4.0 -1 ------- null}
+ -t 0.53 -s 1 -d 2 -p cbr -e 512 -c 0 -i 13 -a 0 -x {1.0 4.1 6 ------- null}
- -t 0.53 -s 1 -d 2 -p cbr -e 512 -c 0 -i 13 -a 0 -x {1.0 4.1 6 ------- null}
h -t 0.53 -s 1 -d 2 -p cbr -e 512 -c 0 -i 13 -a 0 -x {1.0 4.1 -1 ------- null}
- -t 0.531048 -s 2 -d 3 -p cbr -e 512 -c 0 -i 3 -a 0 -x {1.0 4.1 1 ------- null}
h -t 0.531048 -s 2 -d 3 -p cbr -e 512 -c 0 -i 3 -a 0 -x {1.0 4.1 -1 ------- null}
r -t 0.532048 -s 0 -d 2 -p cbr -e 512 -c 0 -i 10 -a 0 -x {0.0 4.0 5 ------- null}
+ -t 0.532048 -s 2 -d 3 -p cbr -e 512 -c 0 -i 10 -a 0 -x {0.0 4.0 5 ------- null}
r -t 0.532048 -s 1 -d 2 -p cbr -e 512 -c 0 -i 11 -a 0 -x {1.0 4.1 5 ------- null}
+ -t 0.532048 -s 2 -d 3 -p cbr -e 512 -c 0 -i 11 -a 0 -x {1.0 4.1 5 ------- null}
d -t 0.532048 -s 2 -d 3 -p cbr -e 512 -c 0 -i 11 -a 0 -x {1.0 4.1 5 ------- null}
r -t 0.532096 -s 3 -d 4 -p cbr -e 512 -c 0 -i 0 -a 0 -x {0.0 4.0 0 ------- null}
r -t 0.533048 -s 2 -d 3 -p cbr -e 512 -c 0 -i 1 -a 0 -x {1.0 4.1 0 ------- null}
+ -t 0.533048 -s 3 -d 4 -p cbr -e 512 -c 0 -i 1 -a 0 -x {1.0 4.1 0 ------- null}
- -t 0.533048 -s 3 -d 4 -p cbr -e 512 -c 0 -i 1 -a 0 -x {1.0 4.1 0 ------- null}
h -t 0.533048 -s 3 -d 4 -p cbr -e 512 -c 0 -i 1 -a 0 -x {1.0 4.1 -1 ------- null}
+ -t 0.535 -s 0 -d 2 -p cbr -e 512 -c 0 -i 14 -a 0 -x {0.0 4.0 7 ------- null}
- -t 0.535 -s 0 -d 2 -p cbr -e 512 -c 0 -i 14 -a 0 -x {0.0 4.0 7 ------- null}
h -t 0.535 -s 0 -d 2 -p cbr -e 512 -c 0 -i 14 -a 0 -x {0.0 4.0 -1 ------- null}
+ -t 0.535 -s 1 -d 2 -p cbr -e 512 -c 0 -i 15 -a 0 -x {1.0 4.1 7 ------- null}
- -t 0.535 -s 1 -d 2 -p cbr -e 512 -c 0 -i 15 -a 0 -x {1.0 4.1 7 ------- null}
h -t 0.535 -s 1 -d 2 -p cbr -e 512 -c 0 -i 15 -a 0 -x {1.0 4.1 -1 ------- null}
r -t 0.537048 -s 0 -d 2 -p cbr -e 512 -c 0 -i 12 -a 0 -x {0.0 4.0 6 ------- null}
+ -t 0.537048 -s 2 -d 3 -p cbr -e 512 -c 0 -i 12 -a 0 -x {0.0 4.0 6 ------- null}
d -t 0.537048 -s 2 -d 3 -p cbr -e 512 -c 0 -i 12 -a 0 -x {0.0 4.0 6 ------- null}
r -t 0.537048 -s 1 -d 2 -p cbr -e 512 -c 0 -i 13 -a 0 -x {1.0 4.1 6 ------- null}
+ -t 0.537048 -s 2 -d 3 -p cbr -e 512 -c 0 -i 13 -a 0 -x {1.0 4.1 6 ------- null}
d -t 0.537048 -s 2 -d 3 -p cbr -e 512 -c 0 -i 13 -a 0 -x {1.0 4.1 6 ------- null}
- -t 0.539048 -s 2 -d 3 -p cbr -e 512 -c 0 -i 4 -a 0 -x {0.0 4.0 2 ------- null}
h -t 0.539048 -s 2 -d 3 -p cbr -e 512 -c 0 -i 4 -a 0 -x {0.0 4.0 -1 ------- null}
+ -t 0.54 -s 0 -d 2 -p cbr -e 512 -c 0 -i 16 -a 0 -x {0.0 4.0 8 ------- null}
- -t 0.54 -s 0 -d 2 -p cbr -e 512 -c 0 -i 16 -a 0 -x {0.0 4.0 8 ------- null}
h -t 0.54 -s 0 -d 2 -p cbr -e 512 -c 0 -i 16 -a 0 -x {0.0 4.0 -1 ------- null}
+ -t 0.54 -s 1 -d 2 -p cbr -e 512 -c 0 -i 17 -a 0 -x {1.0 4.1 8 ------- null}
- -t 0.54 -s 1 -d 2 -p cbr -e 512 -c 0 -i 17 -a 0 -x {1.0 4.1 8 ------- null}
h -t 0.54 -s 1 -d 2 -p cbr -e 512 -c 0 -i 17 -a 0 -x {1.0 4.1 -1 ------- null}
r -t 0.540096 -s 3 -d 4 -p cbr -e 512 -c 0 -i 1 -a 0 -x {1.0 4.1 0 ------- null}
r -t 0.541048 -s 2 -d 3 -p cbr -e 512 -c 0 -i 2 -a 0 -x {0.0 4.0 1 ------- null}
+ -t 0.541048 -s 3 -d 4 -p cbr -e 512 -c 0 -i 2 -a 0 -x {0.0 4.0 1 ------- null}
- -t 0.541048 -s 3 -d 4 -p cbr -e 512 -c 0 -i 2 -a 0 -x {0.0 4.0 1 ------- null}
h -t 0.541048 -s 3 -d 4 -p cbr -e 512 -c 0 -i 2 -a 0 -x {0.0 4.0 -1 ------- null}
r -t 0.542048 -s 0 -d 2 -p cbr -e 512 -c 0 -i 14 -a 0 -x {0.0 4.0 7 ------- null}
+ -t 0.542048 -s 2 -d 3 -p cbr -e 512 -c 0 -i 14 -a 0 -x {0.0 4.0 7 ------- null}
r -t 0.542048 -s 1 -d 2 -p cbr -e 512 -c 0 -i 15 -a 0 -x {1.0 4.1 7 ------- null}
+ -t 0.542048 -s 2 -d 3 -p cbr -e 512 -c 0 -i 15 -a 0 -x {1.0 4.1 7 ------- null}
d -t 0.542048 -s 2 -d 3 -p cbr -e 512 -c 0 -i 15 -a 0 -x {1.0 4.1 7 ------- null}
+ -t 0.545 -s 0 -d 2 -p cbr -e 512 -c 0 -i 18 -a 0 -x {0.0 4.0 9 ------- null}
- -t 0.545 -s 0 -d 2 -p cbr -e 512 -c 0 -i 18 -a 0 -x {0.0 4.0 9 ------- null}
h -t 0.545 -s 0 -d 2 -p cbr -e 512 -c 0 -i 18 -a 0 -x {0.0 4.0 -1 ------- null}
+ -t 0.545 -s 1 -d 2 -p cbr -e 512 -c 0 -i 19 -a 0 -x {1.0 4.1 9 ------- null}
- -t 0.545 -s 1 -d 2 -p cbr -e 512 -c 0 -i 19 -a 0 -x {1.0 4.1 9 ------- null}
h -t 0.545 -s 1 -d 2 -p cbr -e 512 -c 0 -i 19 -a 0 -x {1.0 4.1 -1 ------- null}
- -t 0.547048 -s 2 -d 3 -p cbr -e 512 -c 0 -i 5 -a 0 -x {1.0 4.1 2 ------- null}
h -t 0.547048 -s 2 -d 3 -p cbr -e 512 -c 0 -i 5 -a 0 -x {1.0 4.1 -1 ------- null}
r -t 0.547048 -s 0 -d 2 -p cbr -e 512 -c 0 -i 16 -a 0 -x {0.0 4.0 8 ------- null}
+ -t 0.547048 -s 2 -d 3 -p cbr -e 512 -c 0 -i 16 -a 0 -x {0.0 4.0 8 ------- null}
r -t 0.547048 -s 1 -d 2 -p cbr -e 512 -c 0 -i 17 -a 0 -x {1.0 4.1 8 ------- null}
+ -t 0.547048 -s 2 -d 3 -p cbr -e 512 -c 0 -i 17 -a 0 -x {1.0 4.1 8 ------- null}
d -t 0.547048 -s 2 -d 3 -p cbr -e 512 -c 0 -i 17 -a 0 -x {1.0 4.1 8 ------- null}
r -t 0.548096 -s 3 -d 4 -p cbr -e 512 -c 0 -i 2 -a 0 -x {0.0 4.0 1 ------- null}
r -t 0.549048 -s 2 -d 3 -p cbr -e 512 -c 0 -i 3 -a 0 -x {1.0 4.1 1 ------- null}
+ -t 0.549048 -s 3 -d 4 -p cbr -e 512 -c 0 -i 3 -a 0 -x {1.0 4.1 1 ------- null}
- -t 0.549048 -s 3 -d 4 -p cbr -e 512 -c 0 -i 3 -a 0 -x {1.0 4.1 1 ------- null}
h -t 0.549048 -s 3 -d 4 -p cbr -e 512 -c 0 -i 3 -a 0 -x {1.0 4.1 -1 ------- null}
+ -t 0.55 -s 0 -d 2 -p cbr -e 512 -c 0 -i 20 -a 0 -x {0.0 4.0 10 ------- null}
- -t 0.55 -s 0 -d 2 -p cbr -e 512 -c 0 -i 20 -a 0 -x {0.0 4.0 10 ------- null}
h -t 0.55 -s 0 -d 2 -p cbr -e 512 -c 0 -i 20 -a 0 -x {0.0 4.0 -1 ------- null}
+ -t 0.55 -s 1 -d 2 -p cbr -e 512 -c 0 -i 21 -a 0 -x {1.0 4.1 10 ------- null}
- -t 0.55 -s 1 -d 2 -p cbr -e 512 -c 0 -i 21 -a 0 -x {1.0 4.1 10 ------- null}
h -t 0.55 -s 1 -d 2 -p cbr -e 512 -c 0 -i 21 -a 0 -x {1.0 4.1 -1 ------- null}
r -t 0.552048 -s 0 -d 2 -p cbr -e 512 -c 0 -i 18 -a 0 -x {0.0 4.0 9 ------- null}
+ -t 0.552048 -s 2 -d 3 -p cbr -e 512 -c 0 -i 18 -a 0 -x {0.0 4.0 9 ------- null}
d -t 0.552048 -s 2 -d 3 -p cbr -e 512 -c 0 -i 18 -a 0 -x {0.0 4.0 9 ------- null}
r -t 0.552048 -s 1 -d 2 -p cbr -e 512 -c 0 -i 19 -a 0 -x {1.0 4.1 9 ------- null}
+ -t 0.552048 -s 2 -d 3 -p cbr -e 512 -c 0 -i 19 -a 0 -x {1.0 4.1 9 ------- null}
d -t 0.552048 -s 2 -d 3 -p cbr -e 512 -c 0 -i 19 -a 0 -x {1.0 4.1 9 ------- null}
+ -t 0.555 -s 0 -d 2 -p cbr -e 512 -c 0 -i 22 -a 0 -x {0.0 4.0 11 ------- null}
- -t 0.555 -s 0 -d 2 -p cbr -e 512 -c 0 -i 22 -a 0 -x {0.0 4.0 11 ------- null}
h -t 0.555 -s 0 -d 2 -p cbr -e 512 -c 0 -i 22 -a 0 -x {0.0 4.0 -1 ------- null}
+ -t 0.555 -s 1 -d 2 -p cbr -e 512 -c 0 -i 23 -a 0 -x {1.0 4.1 11 ------- null}
- -t 0.555 -s 1 -d 2 -p cbr -e 512 -c 0 -i 23 -a 0 -x {1.0 4.1 11 ------- null}
h -t 0.555 -s 1 -d 2 -p cbr -e 512 -c 0 -i 23 -a 0 -x {1.0 4.1 -1 ------- null}
- -t 0.555048 -s 2 -d 3 -p cbr -e 512 -c 0 -i 8 -a 0 -x {0.0 4.0 4 ------- null}
h -t 0.555048 -s 2 -d 3 -p cbr -e 512 -c 0 -i 8 -a 0 -x {0.0 4.0 -1 ------- null}
r -t 0.556096 -s 3 -d 4 -p cbr -e 512 -c 0 -i 3 -a 0 -x {1.0 4.1 1 ------- null}
r -t 0.557048 -s 2 -d 3 -p cbr -e 512 -c 0 -i 4 -a 0 -x {0.0 4.0 2 ------- null}
+ -t 0.557048 -s 3 -d 4 -p cbr -e 512 -c 0 -i 4 -a 0 -x {0.0 4.0 2 ------- null}
- -t 0.557048 -s 3 -d 4 -p cbr -e 512 -c 0 -i 4 -a 0 -x {0.0 4.0 2 ------- null}
h -t 0.557048 -s 3 -d 4 -p cbr -e 512 -c 0 -i 4 -a 0 -x {0.0 4.0 -1 ------- null}
r -t 0.557048 -s 0 -d 2 -p cbr -e 512 -c 0 -i 20 -a 0 -x {0.0 4.0 10 ------- null}
+ -t 0.557048 -s 2 -d 3 -p cbr -e 512 -c 0 -i 20 -a 0 -x {0.0 4.0 10 ------- null}
r -t 0.557048 -s 1 -d 2 -p cbr -e 512 -c 0 -i 21 -a 0 -x {1.0 4.1 10 ------- null}
+ -t 0.557048 -s 2 -d 3 -p cbr -e 512 -c 0 -i 21 -a 0 -x {1.0 4.1 10 ------- null}
d -t 0.557048 -s 2 -d 3 -p cbr -e 512 -c 0 -i 21 -a 0 -x {1.0 4.1 10 ------- null}
+ -t 0.56 -s 0 -d 2 -p cbr -e 512 -c 0 -i 24 -a 0 -x {0.0 4.0 12 ------- null}
- -t 0.56 -s 0 -d 2 -p cbr -e 512 -c 0 -i 24 -a 0 -x {0.0 4.0 12 ------- null}
h -t 0.56 -s 0 -d 2 -p cbr -e 512 -c 0 -i 24 -a 0 -x {0.0 4.0 -1 ------- null}
+ -t 0.56 -s 1 -d 2 -p cbr -e 512 -c 0 -i 25 -a 0 -x {1.0 4.1 12 ------- null}
- -t 0.56 -s 1 -d 2 -p cbr -e 512 -c 0 -i 25 -a 0 -x {1.0 4.1 12 ------- null}
h -t 0.56 -s 1 -d 2 -p cbr -e 512 -c 0 -i 25 -a 0 -x {1.0 4.1 -1 ------- null}
r -t 0.562048 -s 0 -d 2 -p cbr -e 512 -c 0 -i 22 -a 0 -x {0.0 4.0 11 ------- null}
+ -t 0.562048 -s 2 -d 3 -p cbr -e 512 -c 0 -i 22 -a 0 -x {0.0 4.0 11 ------- null}
d -t 0.562048 -s 2 -d 3 -p cbr -e 512 -c 0 -i 22 -a 0 -x {0.0 4.0 11 ------- null}
r -t 0.562048 -s 1 -d 2 -p cbr -e 512 -c 0 -i 23 -a 0 -x {1.0 4.1 11 ------- null}
+ -t 0.562048 -s 2 -d 3 -p cbr -e 512 -c 0 -i 23 -a 0 -x {1.0 4.1 11 ------- null}
d -t 0.562048 -s 2 -d 3 -p cbr -e 512 -c 0 -i 23 -a 0 -x {1.0 4.1 11 ------- null}
- -t 0.563048 -s 2 -d 3 -p cbr -e 512 -c 0 -i 10 -a 0 -x {0.0 4.0 5 ------- null}
h -t 0.563048 -s 2 -d 3 -p cbr -e 512 -c 0 -i 10 -a 0 -x {0.0 4.0 -1 ------- null}
r -t 0.564096 -s 3 -d 4 -p cbr -e 512 -c 0 -i 4 -a 0 -x {0.0 4.0 2 ------- null}
+ -t 0.565 -s 0 -d 2 -p cbr -e 512 -c 0 -i 26 -a 0 -x {0.0 4.0 13 ------- null}
- -t 0.565 -s 0 -d 2 -p cbr -e 512 -c 0 -i 26 -a 0 -x {0.0 4.0 13 ------- null}
h -t 0.565 -s 0 -d 2 -p cbr -e 512 -c 0 -i 26 -a 0 -x {0.0 4.0 -1 ------- null}
+ -t 0.565 -s 1 -d 2 -p cbr -e 512 -c 0 -i 27 -a 0 -x {1.0 4.1 13 ------- null}
- -t 0.565 -s 1 -d 2 -p cbr -e 512 -c 0 -i 27 -a 0 -x {1.0 4.1 13 ------- null}
h -t 0.565 -s 1 -d 2 -p cbr -e 512 -c 0 -i 27 -a 0 -x {1.0 4.1 -1 ------- null}
r -t 0.565048 -s 2 -d 3 -p cbr -e 512 -c 0 -i 5 -a 0 -x {1.0 4.1 2 ------- null}
+ -t 0.565048 -s 3 -d 4 -p cbr -e 512 -c 0 -i 5 -a 0 -x {1.0 4.1 2 ------- null}
- -t 0.565048 -s 3 -d 4 -p cbr -e 512 -c 0 -i 5 -a 0 -x {1.0 4.1 2 ------- null}
h -t 0.565048 -s 3 -d 4 -p cbr -e 512 -c 0 -i 5 -a 0 -x {1.0 4.1 -1 ------- null}
r -t 0.567048 -s 0 -d 2 -p cbr -e 512 -c 0 -i 24 -a 0 -x {0.0 4.0 12 ------- null}
+ -t 0.567048 -s 2 -d 3 -p cbr -e 512 -c 0 -i 24 -a 0 -x {0.0 4.0 12 ------- null}
r -t 0.567048 -s 1 -d 2 -p cbr -e 512 -c 0 -i 25 -a 0 -x {1.0 4.1 12 ------- null}
+ -t 0.567048 -s 2 -d 3 -p cbr -e 512 -c 0 -i 25 -a 0 -x {1.0 4.1 12 ------- null}
d -t 0.567048 -s 2 -d 3 -p cbr -e 512 -c 0 -i 25 -a 0 -x {1.0 4.1 12 ------- null}
+ -t 0.57 -s 0 -d 2 -p cbr -e 512 -c 0 -i 28 -a 0 -x {0.0 4.0 14 ------- null}
- -t 0.57 -s 0 -d 2 -p cbr -e 512 -c 0 -i 28 -a 0 -x {0.0 4.0 14 ------- null}
h -t 0.57 -s 0 -d 2 -p cbr -e 512 -c 0 -i 28 -a 0 -x {0.0 4.0 -1 ------- null}
+ -t 0.57 -s 1 -d 2 -p cbr -e 512 -c 0 -i 29 -a 0 -x {1.0 4.1 14 ------- null}
- -t 0.57 -s 1 -d 2 -p cbr -e 512 -c 0 -i 29 -a 0 -x {1.0 4.1 14 ------- null}
h -t 0.57 -s 1 -d 2 -p cbr -e 512 -c 0 -i 29 -a 0 -x {1.0 4.1 -1 ------- null}
- -t 0.571048 -s 2 -d 3 -p cbr -e 512 -c 0 -i 14 -a 0 -x {0.0 4.0 7 ------- null}
h -t 0.571048 -s 2 -d 3 -p cbr -e 512 -c 0 -i 14 -a 0 -x {0.0 4.0 -1 ------- null}
r -t 0.572048 -s 0 -d 2 -p cbr -e 512 -c 0 -i 26 -a 0 -x {0.0 4.0 13 ------- null}
+ -t 0.572048 -s 2 -d 3 -p cbr -e 512 -c 0 -i 26 -a 0 -x {0.0 4.0 13 ------- null}
r -t 0.572048 -s 1 -d 2 -p cbr -e 512 -c 0 -i 27 -a 0 -x {1.0 4.1 13 ------- null}
+ -t 0.572048 -s 2 -d 3 -p cbr -e 512 -c 0 -i 27 -a 0 -x {1.0 4.1 13 ------- null}
d -t 0.572048 -s 2 -d 3 -p cbr -e 512 -c 0 -i 27 -a 0 -x {1.0 4.1 13 ------- null}
r -t 0.572096 -s 3 -d 4 -p cbr -e 512 -c 0 -i 5 -a 0 -x {1.0 4.1 2 ------- null}
r -t 0.573048 -s 2 -d 3 -p cbr -e 512 -c 0 -i 8 -a 0 -x {0.0 4.0 4 ------- null}
+ -t 0.573048 -s 3 -d 4 -p cbr -e 512 -c 0 -i 8 -a 0 -x {0.0 4.0 4 ------- null}
- -t 0.573048 -s 3 -d 4 -p cbr -e 512 -c 0 -i 8 -a 0 -x {0.0 4.0 4 ------- null}
h -t 0.573048 -s 3 -d 4 -p cbr -e 512 -c 0 -i 8 -a 0 -x {0.0 4.0 -1 ------- null}
+ -t 0.575 -s 0 -d 2 -p cbr -e 512 -c 0 -i 30 -a 0 -x {0.0 4.0 15 ------- null}
- -t 0.575 -s 0 -d 2 -p cbr -e 512 -c 0 -i 30 -a 0 -x {0.0 4.0 15 ------- null}
h -t 0.575 -s 0 -d 2 -p cbr -e 512 -c 0 -i 30 -a 0 -x {0.0 4.0 -1 ------- null}
+ -t 0.575 -s 1 -d 2 -p cbr -e 512 -c 0 -i 31 -a 0 -x {1.0 4.1 15 ------- null}
- -t 0.575 -s 1 -d 2 -p cbr -e 512 -c 0 -i 31 -a 0 -x {1.0 4.1 15 ------- null}
h -t 0.575 -s 1 -d 2 -p cbr -e 512 -c 0 -i 31 -a 0 -x {1.0 4.1 -1 ------- null}
r -t 0.577048 -s 0 -d 2 -p cbr -e 512 -c 0 -i 28 -a 0 -x {0.0 4.0 14 ------- null}
+ -t 0.577048 -s 2 -d 3 -p cbr -e 512 -c 0 -i 28 -a 0 -x {0.0 4.0 14 ------- null}
d -t 0.577048 -s 2 -d 3 -p cbr -e 512 -c 0 -i 28 -a 0 -x {0.0 4.0 14 ------- null}
r -t 0.577048 -s 1 -d 2 -p cbr -e 512 -c 0 -i 29 -a 0 -x {1.0 4.1 14 ------- null}
+ -t 0.577048 -s 2 -d 3 -p cbr -e 512 -c 0 -i 29 -a 0 -x {1.0 4.1 14 ------- null}
d -t 0.577048 -s 2 -d 3 -p cbr -e 512 -c 0 -i 29 -a 0 -x {1.0 4.1 14 ------- null}
- -t 0.579048 -s 2 -d 3 -p cbr -e 512 -c 0 -i 16 -a 0 -x {0.0 4.0 8 ------- null}
h -t 0.579048 -s 2 -d 3 -p cbr -e 512 -c 0 -i 16 -a 0 -x {0.0 4.0 -1 ------- null}
+ -t 0.58 -s 0 -d 2 -p cbr -e 512 -c 0 -i 32 -a 0 -x {0.0 4.0 16 ------- null}
- -t 0.58 -s 0 -d 2 -p cbr -e 512 -c 0 -i 32 -a 0 -x {0.0 4.0 16 ------- null}
h -t 0.58 -s 0 -d 2 -p cbr -e 512 -c 0 -i 32 -a 0 -x {0.0 4.0 -1 ------- null}
+ -t 0.58 -s 1 -d 2 -p cbr -e 512 -c 0 -i 33 -a 0 -x {1.0 4.1 16 ------- null}
- -t 0.58 -s 1 -d 2 -p cbr -e 512 -c 0 -i 33 -a 0 -x {1.0 4.1 16 ------- null}
h -t 0.58 -s 1 -d 2 -p cbr -e 512 -c 0 -i 33 -a 0 -x {1.0 4.1 -1 ------- null}
r -t 0.580096 -s 3 -d 4 -p cbr -e 512 -c 0 -i 8 -a 0 -x {0.0 4.0 4 ------- null}
r -t 0.581048 -s 2 -d 3 -p cbr -e 512 -c 0 -i 10 -a 0 -x {0.0 4.0 5 ------- null}
+ -t 0.581048 -s 3 -d 4 -p cbr -e 512 -c 0 -i 10 -a 0 -x {0.0 4.0 5 ------- null}
- -t 0.581048 -s 3 -d 4 -p cbr -e 512 -c 0 -i 10 -a 0 -x {0.0 4.0 5 ------- null}
h -t 0.581048 -s 3 -d 4 -p cbr -e 512 -c 0 -i 10 -a 0 -x {0.0 4.0 -1 ------- null}
r -t 0.582048 -s 0 -d 2 -p cbr -e 512 -c 0 -i 30 -a 0 -x {0.0 4.0 15 ------- null}
+ -t 0.582048 -s 2 -d 3 -p cbr -e 512 -c 0 -i 30 -a 0 -x {0.0 4.0 15 ------- null}
r -t 0.582048 -s 1 -d 2 -p cbr -e 512 -c 0 -i 31 -a 0 -x {1.0 4.1 15 ------- null}
+ -t 0.582048 -s 2 -d 3 -p cbr -e 512 -c 0 -i 31 -a 0 -x {1.0 4.1 15 ------- null}
d -t 0.582048 -s 2 -d 3 -p cbr -e 512 -c 0 -i 31 -a 0 -x {1.0 4.1 15 ------- null}
+ -t 0.585 -s 0 -d 2 -p cbr -e 512 -c 0 -i 34 -a 0 -x {0.0 4.0 17 ------- null}
- -t 0.585 -s 0 -d 2 -p cbr -e 512 -c 0 -i 34 -a 0 -x {0.0 4.0 17 ------- null}
h -t 0.585 -s 0 -d 2 -p cbr -e 512 -c 0 -i 34 -a 0 -x {0.0 4.0 -1 ------- null}
+ -t 0.585 -s 1 -d 2 -p cbr -e 512 -c 0 -i 35 -a 0 -x {1.0 4.1 17 ------- null}
- -t 0.585 -s 1 -d 2 -p cbr -e 512 -c 0 -i 35 -a 0 -x {1.0 4.1 17 ------- null}
h -t 0.585 -s 1 -d 2 -p cbr -e 512 -c 0 -i 35 -a 0 -x {1.0 4.1 -1 ------- null}
- -t 0.587048 -s 2 -d 3 -p cbr -e 512 -c 0 -i 20 -a 0 -x {0.0 4.0 10 ------- null}
h -t 0.587048 -s 2 -d 3 -p cbr -e 512 -c 0 -i 20 -a 0 -x {0.0 4.0 -1 ------- null}
r -t 0.587048 -s 0 -d 2 -p cbr -e 512 -c 0 -i 32 -a 0 -x {0.0 4.0 16 ------- null}
+ -t 0.587048 -s 2 -d 3 -p cbr -e 512 -c 0 -i 32 -a 0 -x {0.0 4.0 16 ------- null}
r -t 0.587048 -s 1 -d 2 -p cbr -e 512 -c 0 -i 33 -a 0 -x {1.0 4.1 16 ------- null}
+ -t 0.587048 -s 2 -d 3 -p cbr -e 512 -c 0 -i 33 -a 0 -x {1.0 4.1 16 ------- null}
d -t 0.587048 -s 2 -d 3 -p cbr -e 512 -c 0 -i 33 -a 0 -x {1.0 4.1 16 ------- null}
r -t 0.588096 -s 3 -d 4 -p cbr -e 512 -c 0 -i 10 -a 0 -x {0.0 4.0 5 ------- null}
r -t 0.589048 -s 2 -d 3 -p cbr -e 512 -c 0 -i 14 -a 0 -x {0.0 4.0 7 ------- null}
+ -t 0.589048 -s 3 -d 4 -p cbr -e 512 -c 0 -i 14 -a 0 -x {0.0 4.0 7 ------- null}
- -t 0.589048 -s 3 -d 4 -p cbr -e 512 -c 0 -i 14 -a 0 -x {0.0 4.0 7 ------- null}
h -t 0.589048 -s 3 -d 4 -p cbr -e 512 -c 0 -i 14 -a 0 -x {0.0 4.0 -1 ------- null}
+ -t 0.59 -s 0 -d 2 -p cbr -e 512 -c 0 -i 36 -a 0 -x {0.0 4.0 18 ------- null}
- -t 0.59 -s 0 -d 2 -p cbr -e 512 -c 0 -i 36 -a 0 -x {0.0 4.0 18 ------- null}
h -t 0.59 -s 0 -d 2 -p cbr -e 512 -c 0 -i 36 -a 0 -x {0.0 4.0 -1 ------- null}
+ -t 0.59 -s 1 -d 2 -p cbr -e 512 -c 0 -i 37 -a 0 -x {1.0 4.1 18 ------- null}
- -t 0.59 -s 1 -d 2 -p cbr -e 512 -c 0 -i 37 -a 0 -x {1.0 4.1 18 ------- null}
h -t 0.59 -s 1 -d 2 -p cbr -e 512 -c 0 -i 37 -a 0 -x {1.0 4.1 -1 ------- null}
r -t 0.592048 -s 0 -d 2 -p cbr -e 512 -c 0 -i 34 -a 0 -x {0.0 4.0 17 ------- null}
+ -t 0.592048 -s 2 -d 3 -p cbr -e 512 -c 0 -i 34 -a 0 -x {0.0 4.0 17 ------- null}
d -t 0.592048 -s 2 -d 3 -p cbr -e 512 -c 0 -i 34 -a 0 -x {0.0 4.0 17 ------- null}
r -t 0.592048 -s 1 -d 2 -p cbr -e 512 -c 0 -i 35 -a 0 -x {1.0 4.1 17 ------- null}
+ -t 0.592048 -s 2 -d 3 -p cbr -e 512 -c 0 -i 35 -a 0 -x {1.0 4.1 17 ------- null}
d -t 0.592048 -s 2 -d 3 -p cbr -e 512 -c 0 -i 35 -a 0 -x {1.0 4.1 17 ------- null}
+ -t 0.595 -s 0 -d 2 -p cbr -e 512 -c 0 -i 38 -a 0 -x {0.0 4.0 19 ------- null}
- -t 0.595 -s 0 -d 2 -p cbr -e 512 -c 0 -i 38 -a 0 -x {0.0 4.0 19 ------- null}
h -t 0.595 -s 0 -d 2 -p cbr -e 512 -c 0 -i 38 -a 0 -x {0.0 4.0 -1 ------- null}
+ -t 0.595 -s 1 -d 2 -p cbr -e 512 -c 0 -i 39 -a 0 -x {1.0 4.1 19 ------- null}
- -t 0.595 -s 1 -d 2 -p cbr -e 512 -c 0 -i 39 -a 0 -x {1.0 4.1 19 ------- null}
h -t 0.595 -s 1 -d 2 -p cbr -e 512 -c 0 -i 39 -a 0 -x {1.0 4.1 -1 ------- null}
- -t 0.595048 -s 2 -d 3 -p cbr -e 512 -c 0 -i 24 -a 0 -x {0.0 4.0 12 ------- null}
h -t 0.595048 -s 2 -d 3 -p cbr -e 512 -c 0 -i 24 -a 0 -x {0.0 4.0 -1 ------- null}
r -t 0.596096 -s 3 -d 4 -p cbr -e 512 -c 0 -i 14 -a 0 -x {0.0 4.0 7 ------- null}
r -t 0.597048 -s 2 -d 3 -p cbr -e 512 -c 0 -i 16 -a 0 -x {0.0 4.0 8 ------- null}
+ -t 0.597048 -s 3 -d 4 -p cbr -e 512 -c 0 -i 16 -a 0 -x {0.0 4.0 8 ------- null}
- -t 0.597048 -s 3 -d 4 -p cbr -e 512 -c 0 -i 16 -a 0 -x {0.0 4.0 8 ------- null}
h -t 0.597048 -s 3 -d 4 -p cbr -e 512 -c 0 -i 16 -a 0 -x {0.0 4.0 -1 ------- null}
r -t 0.597048 -s 0 -d 2 -p cbr -e 512 -c 0 -i 36 -a 0 -x {0.0 4.0 18 ------- null}
+ -t 0.597048 -s 2 -d 3 -p cbr -e 512 -c 0 -i 36 -a 0 -x {0.0 4.0 18 ------- null}
r -t 0.597048 -s 1 -d 2 -p cbr -e 512 -c 0 -i 37 -a 0 -x {1.0 4.1 18 ------- null}
+ -t 0.597048 -s 2 -d 3 -p cbr -e 512 -c 0 -i 37 -a 0 -x {1.0 4.1 18 ------- null}
d -t 0.597048 -s 2 -d 3 -p cbr -e 512 -c 0 -i 37 -a 0 -x {1.0 4.1 18 ------- null}
+ -t 0.6 -s 0 -d 2 -p cbr -e 512 -c 0 -i 40 -a 0 -x {0.0 4.0 20 ------- null}
- -t 0.6 -s 0 -d 2 -p cbr -e 512 -c 0 -i 40 -a 0 -x {0.0 4.0 20 ------- null}
h -t 0.6 -s 0 -d 2 -p cbr -e 512 -c 0 -i 40 -a 0 -x {0.0 4.0 -1 ------- null}
+ -t 0.6 -s 1 -d 2 -p cbr -e 512 -c 0 -i 41 -a 0 -x {1.0 4.1 20 ------- null}
- -t 0.6 -s 1 -d 2 -p cbr -e 512 -c 0 -i 41 -a 0 -x {1.0 4.1 20 ------- null}
h -t 0.6 -s 1 -d 2 -p cbr -e 512 -c 0 -i 41 -a 0 -x {1.0 4.1 -1 ------- null}
r -t 0.602048 -s 0 -d 2 -p cbr -e 512 -c 0 -i 38 -a 0 -x {0.0 4.0 19 ------- null}
+ -t 0.602048 -s 2 -d 3 -p cbr -e 512 -c 0 -i 38 -a 0 -x {0.0 4.0 19 ------- null}
d -t 0.602048 -s 2 -d 3 -p cbr -e 512 -c 0 -i 38 -a 0 -x {0.0 4.0 19 ------- null}
r -t 0.602048 -s 1 -d 2 -p cbr -e 512 -c 0 -i 39 -a 0 -x {1.0 4.1 19 ------- null}
+ -t 0.602048 -s 2 -d 3 -p cbr -e 512 -c 0 -i 39 -a 0 -x {1.0 4.1 19 ------- null}
d -t 0.602048 -s 2 -d 3 -p cbr -e 512 -c 0 -i 39 -a 0 -x {1.0 4.1 19 ------- null}
- -t 0.603048 -s 2 -d 3 -p cbr -e 512 -c 0 -i 26 -a 0 -x {0.0 4.0 13 ------- null}
h -t 0.603048 -s 2 -d 3 -p cbr -e 512 -c 0 -i 26 -a 0 -x {0.0 4.0 -1 ------- null}
r -t 0.604096 -s 3 -d 4 -p cbr -e 512 -c 0 -i 16 -a 0 -x {0.0 4.0 8 ------- null}
+ -t 0.605 -s 0 -d 2 -p cbr -e 512 -c 0 -i 42 -a 0 -x {0.0 4.0 21 ------- null}
- -t 0.605 -s 0 -d 2 -p cbr -e 512 -c 0 -i 42 -a 0 -x {0.0 4.0 21 ------- null}
h -t 0.605 -s 0 -d 2 -p cbr -e 512 -c 0 -i 42 -a 0 -x {0.0 4.0 -1 ------- null}
+ -t 0.605 -s 1 -d 2 -p cbr -e 512 -c 0 -i 43 -a 0 -x {1.0 4.1 21 ------- null}
- -t 0.605 -s 1 -d 2 -p cbr -e 512 -c 0 -i 43 -a 0 -x {1.0 4.1 21 ------- null}
h -t 0.605 -s 1 -d 2 -p cbr -e 512 -c 0 -i 43 -a 0 -x {1.0 4.1 -1 ------- null}
r -t 0.605048 -s 2 -d 3 -p cbr -e 512 -c 0 -i 20 -a 0 -x {0.0 4.0 10 ------- null}
+ -t 0.605048 -s 3 -d 4 -p cbr -e 512 -c 0 -i 20 -a 0 -x {0.0 4.0 10 ------- null}
- -t 0.605048 -s 3 -d 4 -p cbr -e 512 -c 0 -i 20 -a 0 -x {0.0 4.0 10 ------- null}
h -t 0.605048 -s 3 -d 4 -p cbr -e 512 -c 0 -i 20 -a 0 -x {0.0 4.0 -1 ------- null}
r -t 0.607048 -s 0 -d 2 -p cbr -e 512 -c 0 -i 40 -a 0 -x {0.0 4.0 20 ------- null}
+ -t 0.607048 -s 2 -d 3 -p cbr -e 512 -c 0 -i 40 -a 0 -x {0.0 4.0 20 ------- null}
r -t 0.607048 -s 1 -d 2 -p cbr -e 512 -c 0 -i 41 -a 0 -x {1.0 4.1 20 ------- null}
+ -t 0.607048 -s 2 -d 3 -p cbr -e 512 -c 0 -i 41 -a 0 -x {1.0 4.1 20 ------- null}
d -t 0.607048 -s 2 -d 3 -p cbr -e 512 -c 0 -i 41 -a 0 -x {1.0 4.1 20 ------- null}
+ -t 0.61 -s 0 -d 2 -p cbr -e 512 -c 0 -i 44 -a 0 -x {0.0 4.0 22 ------- null}
- -t 0.61 -s 0 -d 2 -p cbr -e 512 -c 0 -i 44 -a 0 -x {0.0 4.0 22 ------- null}
h -t 0.61 -s 0 -d 2 -p cbr -e 512 -c 0 -i 44 -a 0 -x {0.0 4.0 -1 ------- null}
+ -t 0.61 -s 1 -d 2 -p cbr -e 512 -c 0 -i 45 -a 0 -x {1.0 4.1 22 ------- null}
- -t 0.61 -s 1 -d 2 -p cbr -e 512 -c 0 -i 45 -a 0 -x {1.0 4.1 22 ------- null}
h -t 0.61 -s 1 -d 2 -p cbr -e 512 -c 0 -i 45 -a 0 -x {1.0 4.1 -1 ------- null}
- -t 0.611048 -s 2 -d 3 -p cbr -e 512 -c 0 -i 30 -a 0 -x {0.0 4.0 15 ------- null}
h -t 0.611048 -s 2 -d 3 -p cbr -e 512 -c 0 -i 30 -a 0 -x {0.0 4.0 -1 ------- null}
r -t 0.612048 -s 0 -d 2 -p cbr -e 512 -c 0 -i 42 -a 0 -x {0.0 4.0 21 ------- null}
+ -t 0.612048 -s 2 -d 3 -p cbr -e 512 -c 0 -i 42 -a 0 -x {0.0 4.0 21 ------- null}
r -t 0.612048 -s 1 -d 2 -p cbr -e 512 -c 0 -i 43 -a 0 -x {1.0 4.1 21 ------- null}
+ -t 0.612048 -s 2 -d 3 -p cbr -e 512 -c 0 -i 43 -a 0 -x {1.0 4.1 21 ------- null}
d -t 0.612048 -s 2 -d 3 -p cbr -e 512 -c 0 -i 43 -a 0 -x {1.0 4.1 21 ------- null}
r -t 0.612096 -s 3 -d 4 -p cbr -e 512 -c 0 -i 20 -a 0 -x {0.0 4.0 10 ------- null}
r -t 0.613048 -s 2 -d 3 -p cbr -e 512 -c 0 -i 24 -a 0 -x {0.0 4.0 12 ------- null}
+ -t 0.613048 -s 3 -d 4 -p cbr -e 512 -c 0 -i 24 -a 0 -x {0.0 4.0 12 ------- null}
- -t 0.613048 -s 3 -d 4 -p cbr -e 512 -c 0 -i 24 -a 0 -x {0.0 4.0 12 ------- null}
h -t 0.613048 -s 3 -d 4 -p cbr -e 512 -c 0 -i 24 -a 0 -x {0.0 4.0 -1 ------- null}
+ -t 0.615 -s 0 -d 2 -p cbr -e 512 -c 0 -i 46 -a 0 -x {0.0 4.0 23 ------- null}
- -t 0.615 -s 0 -d 2 -p cbr -e 512 -c 0 -i 46 -a 0 -x {0.0 4.0 23 ------- null}
h -t 0.615 -s 0 -d 2 -p cbr -e 512 -c 0 -i 46 -a 0 -x {0.0 4.0 -1 ------- null}
+ -t 0.615 -s 1 -d 2 -p cbr -e 512 -c 0 -i 47 -a 0 -x {1.0 4.1 23 ------- null}
- -t 0.615 -s 1 -d 2 -p cbr -e 512 -c 0 -i 47 -a 0 -x {1.0 4.1 23 ------- null}
h -t 0.615 -s 1 -d 2 -p cbr -e 512 -c 0 -i 47 -a 0 -x {1.0 4.1 -1 ------- null}
r -t 0.617048 -s 0 -d 2 -p cbr -e 512 -c 0 -i 44 -a 0 -x {0.0 4.0 22 ------- null}
+ -t 0.617048 -s 2 -d 3 -p cbr -e 512 -c 0 -i 44 -a 0 -x {0.0 4.0 22 ------- null}
d -t 0.617048 -s 2 -d 3 -p cbr -e 512 -c 0 -i 44 -a 0 -x {0.0 4.0 22 ------- null}
r -t 0.617048 -s 1 -d 2 -p cbr -e 512 -c 0 -i 45 -a 0 -x {1.0 4.1 22 ------- null}
+ -t 0.617048 -s 2 -d 3 -p cbr -e 512 -c 0 -i 45 -a 0 -x {1.0 4.1 22 ------- null}
d -t 0.617048 -s 2 -d 3 -p cbr -e 512 -c 0 -i 45 -a 0 -x {1.0 4.1 22 ------- null}
- -t 0.619048 -s 2 -d 3 -p cbr -e 512 -c 0 -i 32 -a 0 -x {0.0 4.0 16 ------- null}
h -t 0.619048 -s 2 -d 3 -p cbr -e 512 -c 0 -i 32 -a 0 -x {0.0 4.0 -1 ------- null}
+ -t 0.62 -s 0 -d 2 -p cbr -e 512 -c 0 -i 48 -a 0 -x {0.0 4.0 24 ------- null}
- -t 0.62 -s 0 -d 2 -p cbr -e 512 -c 0 -i 48 -a 0 -x {0.0 4.0 24 ------- null}
h -t 0.62 -s 0 -d 2 -p cbr -e 512 -c 0 -i 48 -a 0 -x {0.0 4.0 -1 ------- null}
+ -t 0.62 -s 1 -d 2 -p cbr -e 512 -c 0 -i 49 -a 0 -x {1.0 4.1 24 ------- null}
- -t 0.62 -s 1 -d 2 -p cbr -e 512 -c 0 -i 49 -a 0 -x {1.0 4.1 24 ------- null}
h -t 0.62 -s 1 -d 2 -p cbr -e 512 -c 0 -i 49 -a 0 -x {1.0 4.1 -1 ------- null}
r -t 0.620096 -s 3 -d 4 -p cbr -e 512 -c 0 -i 24 -a 0 -x {0.0 4.0 12 ------- null}
r -t 0.621048 -s 2 -d 3 -p cbr -e 512 -c 0 -i 26 -a 0 -x {0.0 4.0 13 ------- null}
+ -t 0.621048 -s 3 -d 4 -p cbr -e 512 -c 0 -i 26 -a 0 -x {0.0 4.0 13 ------- null}
- -t 0.621048 -s 3 -d 4 -p cbr -e 512 -c 0 -i 26 -a 0 -x {0.0 4.0 13 ------- null}