V -t * -v 1.0a5 -a 0
A -t * -n 1 -p 0 -o 0x7fffffff -c 30 -a 1
A -t * -h 1 -m 1073741823 -s 0
n -t * -a 0 -s 0 -S UP -v circle -c black -i black
n -t * -a 1 -s 1 -S UP -v circle -c black -i black
n -t * -a 2 -s 2 -S UP -v circle -c black -i black
n -t * -a 3 -s 3 -S UP -v circle -c black -i black
l -t * -s 0 -d 1 -S UP -r 1000000 -D 0.01 -c black
l -t * -s 1 -d 2 -S UP -r 512000 -D 0.01 -c black
l -t * -s 2 -d 3 -S UP -r 1000000 -D 0.01 -c black
+ -t 0.5 -s 0 -d 1 -p tcp -e 40 -c 0 -i 0 -a 0 -x {0.0 3.0 0 ------- null}
- -t 0.5 -s 0 -d 1 -p tcp -e 40 -c 0 -i 0 -a 0 -x {0.0 3.0 0 ------- null}
h -t 0.5 -s 0 -d 1 -p tcp -e 40 -c 0 -i 0 -a 0 -x {0.0 3.0 -1 ------- null}
r -t 0.51032 -s 0 -d 1 -p tcp -e 40 -c 0 -i 0 -a 0 -x {0.0 3.0 0 ------- null}
+ -t 0.51032 -s 1 -d 2 -p tcp -e 40 -c 0 -i 0 -a 0 -x {0.0 3.0 0 ------- null}
- -t 0.51032 -s 1 -d 2 -p tcp -e 40 -c 0 -i 0 -a 0 -x {0.0 3.0 0 ------- null}
h -t 0.51032 -s 1 -d 2 -p tcp -e 40 -c 0 -i 0 -a 0 -x {0.0 3.0 -1 ------- null}
r -t 0.520945 -s 1 -d 2 -p tcp -e 40 -c 0 -i 0 -a 0 -x {0.0 3.0 0 ------- null}
+ -t 0.520945 -s 2 -d 3 -p tcp -e 40 -c 0 -i 0 -a 0 -x {0.0 3.0 0 ------- null}
- -t 0.520945 -s 2 -d 3 -p tcp -e 40 -c 0 -i 0 -a 0 -x {0.0 3.0 0 ------- null}
h -t 0.520945 -s 2 -d 3 -p tcp -e 40 -c 0 -i 0 -a 0 -x {0.0 3.0 -1 ------- null}
r -t 0.531265 -s 2 -d 3 -p tcp -e 40 -c 0 -i 0 -a 0 -x {0.0 3.0 0 ------- null}
+ -t 0.531265 -s 3 -d 2 -p ack -e 40 -c 0 -i 1 -a 0 -x {3.0 0.0 0 ------- null}
- -t 0.531265 -s 3 -d 2 -p ack -e 40 -c 0 -i 1 -a 0 -x {3.0 0.0 0 ------- null}
h -t 0.531265 -s 3 -d 2 -p ack -e 40 -c 0 -i 1 -a 0 -x {3.0 0.0 -1 ------- null}
r -t 0.541585 -s 3 -d 2 -p ack -e 40 -c 0 -i 1 -a 0 -x {3.0 0.0 0 ------- null}
+ -t 0.541585 -s 2 -d 1 -p ack -e 40 -c 0 -i 1 -a 0 -x {3.0 0.0 0 ------- null}
- -t 0.541585 -s 2 -d 1 -p ack -e 40 -c 0 -i 1 -a 0 -x {3.0 0.0 0 ------- null}
h -t 0.541585 -s 2 -d 1 -p ack -e 40 -c 0 -i 1 -a 0 -x {3.0 0.0 -1 ------- null}
r -t 0.55221 -s 2 -d 1 -p ack -e 40 -c 0 -i 1 -a 0 -x {3.0 0.0 0 ------- null}
+ -t 0.55221 -s 1 -d 0 -p ack -e 40 -c 0 -i 1 -a 0 -x {3.0 0.0 0 ------- null}
- -t 0.55221 -s 1 -d 0 -p ack -e 40 -c 0 -i 1 -a 0 -x {3.0 0.0 0 ------- null}
h -t 0.55221 -s 1 -d 0 -p ack -e 40 -c 0 -i 1 -a 0 -x {3.0 0.0 -1 ------- null}
r -t 0.56253 -s 1 -d 0 -p ack -e 40 -c 0 -i 1 -a 0 -x {3.0 0.0 0 ------- null}
+ -t 0.56253 -s 0 -d 1 -p tcp -e 1040 -c 0 -i 2 -a 0 -x {0.0 3.0 1 ------- null}
- -t 0.56253 -s 0 -d 1 -p tcp -e 1040 -c 0 -i 2 -a 0 -x {0.0 3.0 1 ------- null}
h -t 0.56253 -s 0 -d 1 -p tcp -e 1040 -c 0 -i 2 -a 0 -x {0.0 3.0 -1 ------- null}
+ -t 0.56253 -s 0 -d 1 -p tcp -e 1040 -c 0 -i 3 -a 0 -x {0.0 3.0 2 ------- null}
- -t 0.57085 -s 0 -d 1 -p tcp -e 1040 -c 0 -i 3 -a 0 -x {0.0 3.0 2 ------- null}
h -t 0.57085 -s 0 -d 1 -p tcp -e 1040 -c 0 -i 3 -a 0 -x {0.0 3.0 -1 ------- null}
r -t 0.58085 -s 0 -d 1 -p tcp -e 1040 -c 0 -i 2 -a 0 -x {0.0 3.0 1 ------- null}
+ -t 0.58085 -s 1 -d 2 -p tcp -e 1040 -c 0 -i 2 -a 0 -x {0.0 3.0 1 ------- null}
- -t 0.58085 -s 1 -d 2 -p tcp -e 1040 -c 0 -i 2 -a 0 -x {0.0 3.0 1 ------- null}
h -t 0.58085 -s 1 -d 2 -p tcp -e 1040 -c 0 -i 2 -a 0 -x {0.0 3.0 -1 ------- null}
r -t 0.58917 -s 0 -d 1 -p tcp -e 1040 -c 0 -i 3 -a 0 -x {0.0 3.0 2 ------- null}
+ -t 0.58917 -s 1 -d 2 -p tcp -e 1040 -c 0 -i 3 -a 0 -x {0.0 3.0 2 ------- null}
- -t 0.5971 -s 1 -d 2 -p tcp -e 1040 -c 0 -i 3 -a 0 -x {0.0 3.0 2 ------- null}
h -t 0.5971 -s 1 -d 2 -p tcp -e 1040 -c 0 -i 3 -a 0 -x {0.0 3.0 -1 ------- null}
r -t 0.6071 -s 1 -d 2 -p tcp -e 1040 -c 0 -i 2 -a 0 -x {0.0 3.0 1 ------- null}
+ -t 0.6071 -s 2 -d 3 -p tcp -e 1040 -c 0 -i 2 -a 0 -x {0.0 3.0 1 ------- null}
- -t 0.6071 -s 2 -d 3 -p tcp -e 1040 -c 0 -i 2 -a 0 -x {0.0 3.0 1 ------- null}
h -t 0.6071 -s 2 -d 3 -p tcp -e 1040 -c 0 -i 2 -a 0 -x {0.0 3.0 -1 ------- null}
r -t 0.62335 -s 1 -d 2 -p tcp -e 1040 -c 0 -i 3 -a 0 -x {0.0 3.0 2 ------- null}
+ -t 0.62335 -s 2 -d 3 -p tcp -e 1040 -c 0 -i 3 -a 0 -x {0.0 3.0 2 ------- null}
- -t 0.62335 -s 2 -d 3 -p tcp -e 1040 -c 0 -i 3 -a 0 -x {0.0 3.0 2 ------- null}
h -t 0.62335 -s 2 -d 3 -p tcp -e 1040 -c 0 -i 3 -a 0 -x {0.0 3.0 -1 ------- null}
r -t 0.62542 -s 2 -d 3 -p tcp -e 1040 -c 0 -i 2 -a 0 -x {0.0 3.0 1 ------- null}
+ -t 0.62542 -s 3 -d 2 -p ack -e 40 -c 0 -i 4 -a 0 -x {3.0 0.0 1 ------- null}
- -t 0.62542 -s 3 -d 2 -p ack -e 40 -c 0 -i 4 -a 0 -x {3.0 0.0 1 ------- null}
h -t 0.62542 -s 3 -d 2 -p ack -e 40 -c 0 -i 4 -a 0 -x {3.0 0.0 -1 ------- null}
r -t 0.63574 -s 3 -d 2 -p ack -e 40 -c 0 -i 4 -a 0 -x {3.0 0.0 1 ------- null}
+ -t 0.63574 -s 2 -d 1 -p ack -e 40 -c 0 -i 4 -a 0 -x {3.0 0.0 1 ------- null}
- -t 0.63574 -s 2 -d 1 -p ack -e 40 -c 0 -i 4 -a 0 -x {3.0 0.0 1 ------- null}
h -t 0.63574 -s 2 -d 1 -p ack -e 40 -c 0 -i 4 -a 0 -x {3.0 0.0 -1 ------- null}
r -t 0.64167 -s 2 -d 3 -p tcp -e 1040 -c 0 -i 3 -a 0 -x {0.0 3.0 2 ------- null}
+ -t 0.64167 -s 3 -d 2 -p ack -e 40 -c 0 -i 5 -a 0 -x {3.0 0.0 2 ------- null}
- -t 0.64167 -s 3 -d 2 -p ack -e 40 -c 0 -i 5 -a 0 -x {3.0 0.0 2 ------- null}
h -t 0.64167 -s 3 -d 2 -p ack -e 40 -c 0 -i 5 -a 0 -x {3.0 0.0 -1 ------- null}
r -t 0.646365 -s 2 -d 1 -p ack -e 40 -c 0 -i 4 -a 0 -x {3.0 0.0 1 ------- null}
+ -t 0.646365 -s 1 -d 0 -p ack -e 40 -c 0 -i 4 -a 0 -x {3.0 0.0 1 ------- null}
- -t 0.646365 -s 1 -d 0 -p ack -e 40 -c 0 -i 4 -a 0 -x {3.0 0.0 1 ------- null}
h -t 0.646365 -s 1 -d 0 -p ack -e 40 -c 0 -i 4 -a 0 -x {3.0 0.0 -1 ------- null}
r -t 0.65199 -s 3 -d 2 -p ack -e 40 -c 0 -i 5 -a 0 -x {3.0 0.0 2 ------- null}
+ -t 0.65199 -s 2 -d 1 -p ack -e 40 -c 0 -i 5 -a 0 -x {3.0 0.0 2 ------- null}
- -t 0.65199 -s 2 -d 1 -p ack -e 40 -c 0 -i 5 -a 0 -x {3.0 0.0 2 ------- null}
h -t 0.65199 -s 2 -d 1 -p ack -e 40 -c 0 -i 5 -a 0 -x {3.0 0.0 -1 ------- null}
r -t 0.656685 -s 1 -d 0 -p ack -e 40 -c 0 -i 4 -a 0 -x {3.0 0.0 1 ------- null}
+ -t 0.656685 -s 0 -d 1 -p tcp -e 1040 -c 0 -i 6 -a 0 -x {0.0 3.0 3 ------- null}
- -t 0.656685 -s 0 -d 1 -p tcp -e 1040 -c 0 -i 6 -a 0 -x {0.0 3.0 3 ------- null}
h -t 0.656685 -s 0 -d 1 -p tcp -e 1040 -c 0 -i 6 -a 0 -x {0.0 3.0 -1 ------- null}
+ -t 0.656685 -s 0 -d 1 -p tcp -e 1040 -c 0 -i 7 -a 0 -x {0.0 3.0 4 ------- null}
r -t 0.662615 -s 2 -d 1 -p ack -e 40 -c 0 -i 5 -a 0 -x {3.0 0.0 2 ------- null}
+ -t 0.662615 -s 1 -d 0 -p ack -e 40 -c 0 -i 5 -a 0 -x {3.0 0.0 2 ------- null}
- -t 0.662615 -s 1 -d 0 -p ack -e 40 -c 0 -i 5 -a 0 -x {3.0 0.0 2 ------- null}
h -t 0.662615 -s 1 -d 0 -p ack -e 40 -c 0 -i 5 -a 0 -x {3.0 0.0 -1 ------- null}
- -t 0.665005 -s 0 -d 1 -p tcp -e 1040 -c 0 -i 7 -a 0 -x {0.0 3.0 4 ------- null}
h -t 0.665005 -s 0 -d 1 -p tcp -e 1040 -c 0 -i 7 -a 0 -x {0.0 3.0 -1 ------- null}
r -t 0.672935 -s 1 -d 0 -p ack -e 40 -c 0 -i 5 -a 0 -x {3.0 0.0 2 ------- null}
+ -t 0.672935 -s 0 -d 1 -p tcp -e 1040 -c 0 -i 8 -a 0 -x {0.0 3.0 5 ------- null}
+ -t 0.672935 -s 0 -d 1 -p tcp -e 1040 -c 0 -i 9 -a 0 -x {0.0 3.0 6 ------- null}
- -t 0.673325 -s 0 -d 1 -p tcp -e 1040 -c 0 -i 8 -a 0 -x {0.0 3.0 5 ------- null}
h -t 0.673325 -s 0 -d 1 -p tcp -e 1040 -c 0 -i 8 -a 0 -x {0.0 3.0 -1 ------- null}
r -t 0.675005 -s 0 -d 1 -p tcp -e 1040 -c 0 -i 6 -a 0 -x {0.0 3.0 3 ------- null}
+ -t 0.675005 -s 1 -d 2 -p tcp -e 1040 -c 0 -i 6 -a 0 -x {0.0 3.0 3 ------- null}
- -t 0.675005 -s 1 -d 2 -p tcp -e 1040 -c 0 -i 6 -a 0 -x {0.0 3.0 3 ------- null}
h -t 0.675005 -s 1 -d 2 -p tcp -e 1040 -c 0 -i 6 -a 0 -x {0.0 3.0 -1 ------- null}
- -t 0.681645 -s 0 -d 1 -p tcp -e 1040 -c 0 -i 9 -a 0 -x {0.0 3.0 6 ------- null}
h -t 0.681645 -s 0 -d 1 -p tcp -e 1040 -c 0 -i 9 -a 0 -x {0.0 3.0 -1 ------- null}
r -t 0.683325 -s 0 -d 1 -p tcp -e 1040 -c 0 -i 7 -a 0 -x {0.0 3.0 4 ------- null}
+ -t 0.683325 -s 1 -d 2 -p tcp -e 1040 -c 0 -i 7 -a 0 -x {0.0 3.0 4 ------- null}
- -t 0.691255 -s 1 -d 2 -p tcp -e 1040 -c 0 -i 7 -a 0 -x {0.0 3.0 4 ------- null}
h -t 0.691255 -s 1 -d 2 -p tcp -e 1040 -c 0 -i 7 -a 0 -x {0.0 3.0 -1 ------- null}
r -t 0.691645 -s 0 -d 1 -p tcp -e 1040 -c 0 -i 8 -a 0 -x {0.0 3.0 5 ------- null}
+ -t 0.691645 -s 1 -d 2 -p tcp -e 1040 -c 0 -i 8 -a 0 -x {0.0 3.0 5 ------- null}
r -t 0.699965 -s 0 -d 1 -p tcp -e 1040 -c 0 -i 9 -a 0 -x {0.0 3.0 6 ------- null}
+ -t 0.699965 -s 1 -d 2 -p tcp -e 1040 -c 0 -i 9 -a 0 -x {0.0 3.0 6 ------- null}
r -t 0.701255 -s 1 -d 2 -p tcp -e 1040 -c 0 -i 6 -a 0 -x {0.0 3.0 3 ------- null}
+ -t 0.701255 -s 2 -d 3 -p tcp -e 1040 -c 0 -i 6 -a 0 -x {0.0 3.0 3 ------- null}
- -t 0.701255 -s 2 -d 3 -p tcp -e 1040 -c 0 -i 6 -a 0 -x {0.0 3.0 3 ------- null}
h -t 0.701255 -s 2 -d 3 -p tcp -e 1040 -c 0 -i 6 -a 0 -x {0.0 3.0 -1 ------- null}
- -t 0.707505 -s 1 -d 2 -p tcp -e 1040 -c 0 -i 8 -a 0 -x {0.0 3.0 5 ------- null}
h -t 0.707505 -s 1 -d 2 -p tcp -e 1040 -c 0 -i 8 -a 0 -x {0.0 3.0 -1 ------- null}
r -t 0.717505 -s 1 -d 2 -p tcp -e 1040 -c 0 -i 7 -a 0 -x {0.0 3.0 4 ------- null}
+ -t 0.717505 -s 2 -d 3 -p tcp -e 1040 -c 0 -i 7 -a 0 -x {0.0 3.0 4 ------- null}
- -t 0.717505 -s 2 -d 3 -p tcp -e 1040 -c 0 -i 7 -a 0 -x {0.0 3.0 4 ------- null}
h -t 0.717505 -s 2 -d 3 -p tcp -e 1040 -c 0 -i 7 -a 0 -x {0.0 3.0 -1 ------- null}
r -t 0.719575 -s 2 -d 3 -p tcp -e 1040 -c 0 -i 6 -a 0 -x {0.0 3.0 3 ------- null}
+ -t 0.719575 -s 3 -d 2 -p ack -e 40 -c 0 -i 10 -a 0 -x {3.0 0.0 3 ------- null}
- -t 0.719575 -s 3 -d 2 -p ack -e 40 -c 0 -i 10 -a 0 -x {3.0 0.0 3 ------- null}
h -t 0.719575 -s 3 -d 2 -p ack -e 40 -c 0 -i 10 -a 0 -x {3.0 0.0 -1 ------- null}
- -t 0.723755 -s 1 -d 2 -p tcp -e 1040 -c 0 -i 9 -a 0 -x {0.0 3.0 6 ------- null}
h -t 0.723755 -s 1 -d 2 -p tcp -e 1040 -c 0 -i 9 -a 0 -x {0.0 3.0 -1 ------- null}
r -t 0.729895 -s 3 -d 2 -p ack -e 40 -c 0 -i 10 -a 0 -x {3.0 0.0 3 ------- null}
+ -t 0.729895 -s 2 -d 1 -p ack -e 40 -c 0 -i 10 -a 0 -x {3.0 0.0 3 ------- null}
- -t 0.729895 -s 2 -d 1 -p ack -e 40 -c 0 -i 10 -a 0 -x {3.0 0.0 3 ------- null}
h -t 0.729895 -s 2 -d 1 -p ack -e 40 -c 0 -i 10 -a 0 -x {3.0 0.0 -1 ------- null}
r -t 0.733755 -s 1 -d 2 -p tcp -e 1040 -c 0 -i 8 -a 0 -x {0.0 3.0 5 ------- null}
+ -t 0.733755 -s 2 -d 3 -p tcp -e 1040 -c 0 -i 8 -a 0 -x {0.0 3.0 5 ------- null}
- -t 0.733755 -s 2 -d 3 -p tcp -e 1040 -c 0 -i 8 -a 0 -x {0.0 3.0 5 ------- null}
h -t 0.733755 -s 2 -d 3 -p tcp -e 1040 -c 0 -i 8 -a 0 -x {0.0 3.0 -1 ------- null}
r -t 0.735825 -s 2 -d 3 -p tcp -e 1040 -c 0 -i 7 -a 0 -x {0.0 3.0 4 ------- null}
+ -t 0.735825 -s 3 -d 2 -p ack -e 40 -c 0 -i 11 -a 0 -x {3.0 0.0 4 ------- null}
- -t 0.735825 -s 3 -d 2 -p ack -e 40 -c 0 -i 11 -a 0 -x {3.0 0.0 4 ------- null}
h -t 0.735825 -s 3 -d 2 -p ack -e 40 -c 0 -i 11 -a 0 -x {3.0 0.0 -1 ------- null}
r -t 0.74052 -s 2 -d 1 -p ack -e 40 -c 0 -i 10 -a 0 -x {3.0 0.0 3 ------- null}
+ -t 0.74052 -s 1 -d 0 -p ack -e 40 -c 0 -i 10 -a 0 -x {3.0 0.0 3 ------- null}
- -t 0.74052 -s 1 -d 0 -p ack -e 40 -c 0 -i 10 -a 0 -x {3.0 0.0 3 ------- null}
h -t 0.74052 -s 1 -d 0 -p ack -e 40 -c 0 -i 10 -a 0 -x {3.0 0.0 -1 ------- null}
r -t 0.746145 -s 3 -d 2 -p ack -e 40 -c 0 -i 11 -a 0 -x {3.0 0.0 4 ------- null}
+ -t 0.746145 -s 2 -d 1 -p ack -e 40 -c 0 -i 11 -a 0 -x {3.0 0.0 4 ------- null}
- -t 0.746145 -s 2 -d 1 -p ack -e 40 -c 0 -i 11 -a 0 -x {3.0 0.0 4 ------- null}
h -t 0.746145 -s 2 -d 1 -p ack -e 40 -c 0 -i 11 -a 0 -x {3.0 0.0 -1 ------- null}
r -t 0.750005 -s 1 -d 2 -p tcp -e 1040 -c 0 -i 9 -a 0 -x {0.0 3.0 6 ------- null}
+ -t 0.750005 -s 2 -d 3 -p tcp -e 1040 -c 0 -i 9 -a 0 -x {0.0 3.0 6 ------- null}
- -t 0.750005 -s 2 -d 3 -p tcp -e 1040 -c 0 -i 9 -a 0 -x {0.0 3.0 6 ------- null}
h -t 0.750005 -s 2 -d 3 -p tcp -e 1040 -c 0 -i 9 -a 0 -x {0.0 3.0 -1 ------- null}
r -t 0.75084 -s 1 -d 0 -p ack -e 40 -c 0 -i 10 -a 0 -x {3.0 0.0 3 ------- null}
+ -t 0.75084 -s 0 -d 1 -p tcp -e 1040 -c 0 -i 12 -a 0 -x {0.0 3.0 7 ------- null}
- -t 0.75084 -s 0 -d 1 -p tcp -e 1040 -c 0 -i 12 -a 0 -x {0.0 3.0 7 ------- null}
h -t 0.75084 -s 0 -d 1 -p tcp -e 1040 -c 0 -i 12 -a 0 -x {0.0 3.0 -1 ------- null}
+ -t 0.75084 -s 0 -d 1 -p tcp -e 1040 -c 0 -i 13 -a 0 -x {0.0 3.0 8 ------- null}
r -t 0.752075 -s 2 -d 3 -p tcp -e 1040 -c 0 -i 8 -a 0 -x {0.0 3.0 5 ------- null}
+ -t 0.752075 -s 3 -d 2 -p ack -e 40 -c 0 -i 14 -a 0 -x {3.0 0.0 5 ------- null}
- -t 0.752075 -s 3 -d 2 -p ack -e 40 -c 0 -i 14 -a 0 -x {3.0 0.0 5 ------- null}
h -t 0.752075 -s 3 -d 2 -p ack -e 40 -c 0 -i 14 -a 0 -x {3.0 0.0 -1 ------- null}
r -t 0.75677 -s 2 -d 1 -p ack -e 40 -c 0 -i 11 -a 0 -x {3.0 0.0 4 ------- null}
+ -t 0.75677 -s 1 -d 0 -p ack -e 40 -c 0 -i 11 -a 0 -x {3.0 0.0 4 ------- null}
- -t 0.75677 -s 1 -d 0 -p ack -e 40 -c 0 -i 11 -a 0 -x {3.0 0.0 4 ------- null}
h -t 0.75677 -s 1 -d 0 -p ack -e 40 -c 0 -i 11 -a 0 -x {3.0 0.0 -1 ------- null}
- -t 0.75916 -s 0 -d 1 -p tcp -e 1040 -c 0 -i 13 -a 0 -x {0.0 3.0 8 ------- null}
h -t 0.75916 -s 0 -d 1 -p tcp -e 1040 -c 0 -i 13 -a 0 -x {0.0 3.0 -1 ------- null}
r -t 0.762395 -s 3 -d 2 -p ack -e 40 -c 0 -i 14 -a 0 -x {3.0 0.0 5 ------- null}
+ -t 0.762395 -s 2 -d 1 -p ack -e 40 -c 0 -i 14 -a 0 -x {3.0 0.0 5 ------- null}
- -t 0.762395 -s 2 -d 1 -p ack -e 40 -c 0 -i 14 -a 0 -x {3.0 0.0 5 ------- null}
h -t 0.762395 -s 2 -d 1 -p ack -e 40 -c 0 -i 14 -a 0 -x {3.0 0.0 -1 ------- null}
r -t 0.76709 -s 1 -d 0 -p ack -e 40 -c 0 -i 11 -a 0 -x {3.0 0.0 4 ------- null}
+ -t 0.76709 -s 0 -d 1 -p tcp -e 1040 -c 0 -i 15 -a 0 -x {0.0 3.0 9 ------- null}
+ -t 0.76709 -s 0 -d 1 -p tcp -e 1040 -c 0 -i 16 -a 0 -x {0.0 3.0 10 ------- null}
- -t 0.76748 -s 0 -d 1 -p tcp -e 1040 -c 0 -i 15 -a 0 -x {0.0 3.0 9 ------- null}
h -t 0.76748 -s 0 -d 1 -p tcp -e 1040 -c 0 -i 15 -a 0 -x {0.0 3.0 -1 ------- null}
r -t 0.768325 -s 2 -d 3 -p tcp -e 1040 -c 0 -i 9 -a 0 -x {0.0 3.0 6 ------- null}
+ -t 0.768325 -s 3 -d 2 -p ack -e 40 -c 0 -i 17 -a 0 -x {3.0 0.0 6 ------- null}
- -t 0.768325 -s 3 -d 2 -p ack -e 40 -c 0 -i 17 -a 0 -x {3.0 0.0 6 ------- null}
h -t 0.768325 -s 3 -d 2 -p ack -e 40 -c 0 -i 17 -a 0 -x {3.0 0.0 -1 ------- null}
r -t 0.76916 -s 0 -d 1 -p tcp -e 1040 -c 0 -i 12 -a 0 -x {0.0 3.0 7 ------- null}
+ -t 0.76916 -s 1 -d 2 -p tcp -e 1040 -c 0 -i 12 -a 0 -x {0.0 3.0 7 ------- null}
- -t 0.76916 -s 1 -d 2 -p tcp -e 1040 -c 0 -i 12 -a 0 -x {0.0 3.0 7 ------- null}
h -t 0.76916 -s 1 -d 2 -p tcp -e 1040 -c 0 -i 12 -a 0 -x {0.0 3.0 -1 ------- null}
r -t 0.77302 -s 2 -d 1 -p ack -e 40 -c 0 -i 14 -a 0 -x {3.0 0.0 5 ------- null}
+ -t 0.77302 -s 1 -d 0 -p ack -e 40 -c 0 -i 14 -a 0 -x {3.0 0.0 5 ------- null}
- -t 0.77302 -s 1 -d 0 -p ack -e 40 -c 0 -i 14 -a 0 -x {3.0 0.0 5 ------- null}
h -t 0.77302 -s 1 -d 0 -p ack -e 40 -c 0 -i 14 -a 0 -x {3.0 0.0 -1 ------- null}
- -t 0.7758 -s 0 -d 1 -p tcp -e 1040 -c 0 -i 16 -a 0 -x {0.0 3.0 10 ------- null}
h -t 0.7758 -s 0 -d 1 -p tcp -e 1040 -c 0 -i 16 -a 0 -x {0.0 3.0 -1 ------- null}
r -t 0.77748 -s 0 -d 1 -p tcp -e 1040 -c 0 -i 13 -a 0 -x {0.0 3.0 8 ------- null}
+ -t 0.77748 -s 1 -d 2 -p tcp -e 1040 -c 0 -i 13 -a 0 -x {0.0 3.0 8 ------- null}
r -t 0.778645 -s 3 -d 2 -p ack -e 40 -c 0 -i 17 -a 0 -x {3.0 0.0 6 ------- null}
+ -t 0.778645 -s 2 -d 1 -p ack -e 40 -c 0 -i 17 -a 0 -x {3.0 0.0 6 ------- null}
- -t 0.778645 -s 2 -d 1 -p ack -e 40 -c 0 -i 17 -a 0 -x {3.0 0.0 6 ------- null}
h -t 0.778645 -s 2 -d 1 -p ack -e 40 -c 0 -i 17 -a 0 -x {3.0 0.0 -1 ------- null}
r -t 0.78334 -s 1 -d 0 -p ack -e 40 -c 0 -i 14 -a 0 -x {3.0 0.0 5 ------- null}
+ -t 0.78334 -s 0 -d 1 -p tcp -e 1040 -c 0 -i 18 -a 0 -x {0.0 3.0 11 ------- null}
+ -t 0.78334 -s 0 -d 1 -p tcp -e 1040 -c 0 -i 19 -a 0 -x {0.0 3.0 12 ------- null}
- -t 0.78412 -s 0 -d 1 -p tcp -e 1040 -c 0 -i 18 -a 0 -x {0.0 3.0 11 ------- null}
h -t 0.78412 -s 0 -d 1 -p tcp -e 1040 -c 0 -i 18 -a 0 -x {0.0 3.0 -1 ------- null}
- -t 0.78541 -s 1 -d 2 -p tcp -e 1040 -c 0 -i 13 -a 0 -x {0.0 3.0 8 ------- null}
h -t 0.78541 -s 1 -d 2 -p tcp -e 1040 -c 0 -i 13 -a 0 -x {0.0 3.0 -1 ------- null}
r -t 0.7858 -s 0 -d 1 -p tcp -e 1040 -c 0 -i 15 -a 0 -x {0.0 3.0 9 ------- null}
+ -t 0.7858 -s 1 -d 2 -p tcp -e 1040 -c 0 -i 15 -a 0 -x {0.0 3.0 9 ------- null}
r -t 0.78927 -s 2 -d 1 -p ack -e 40 -c 0 -i 17 -a 0 -x {3.0 0.0 6 ------- null}
+ -t 0.78927 -s 1 -d 0 -p ack -e 40 -c 0 -i 17 -a 0 -x {3.0 0.0 6 ------- null}
- -t 0.78927 -s 1 -d 0 -p ack -e 40 -c 0 -i 17 -a 0 -x {3.0 0.0 6 ------- null}
h -t 0.78927 -s 1 -d 0 -p ack -e 40 -c 0 -i 17 -a 0 -x {3.0 0.0 -1 ------- null}
- -t 0.79244 -s 0 -d 1 -p tcp -e 1040 -c 0 -i 19 -a 0 -x {0.0 3.0 12 ------- null}
h -t 0.79244 -s 0 -d 1 -p tcp -e 1040 -c 0 -i 19 -a 0 -x {0.0 3.0 -1 ------- null}
r -t 0.79412 -s 0 -d 1 -p tcp -e 1040 -c 0 -i 16 -a 0 -x {0.0 3.0 10 ------- null}
+ -t 0.79412 -s 1 -d 2 -p tcp -e 1040 -c 0 -i 16 -a 0 -x {0.0 3.0 10 ------- null}
r -t 0.79541 -s 1 -d 2 -p tcp -e 1040 -c 0 -i 12 -a 0 -x {0.0 3.0 7 ------- null}
+ -t 0.79541 -s 2 -d 3 -p tcp -e 1040 -c 0 -i 12 -a 0 -x {0.0 3.0 7 ------- null}
- -t 0.79541 -s 2 -d 3 -p tcp -e 1040 -c 0 -i 12 -a 0 -x {0.0 3.0 7 ------- null}
h -t 0.79541 -s 2 -d 3 -p tcp -e 1040 -c 0 -i 12 -a 0 -x {0.0 3.0 -1 ------- null}
r -t 0.79959 -s 1 -d 0 -p ack -e 40 -c 0 -i 17 -a 0 -x {3.0 0.0 6 ------- null}
+ -t 0.79959 -s 0 -d 1 -p tcp -e 1040 -c 0 -i 20 -a 0 -x {0.0 3.0 13 ------- null}
+ -t 0.79959 -s 0 -d 1 -p tcp -e 1040 -c 0 -i 21 -a 0 -x {0.0 3.0 14 ------- null}
- -t 0.80076 -s 0 -d 1 -p tcp -e 1040 -c 0 -i 20 -a 0 -x {0.0 3.0 13 ------- null}
h -t 0.80076 -s 0 -d 1 -p tcp -e 1040 -c 0 -i 20 -a 0 -x {0.0 3.0 -1 ------- null}
- -t 0.80166 -s 1 -d 2 -p tcp -e 1040 -c 0 -i 15 -a 0 -x {0.0 3.0 9 ------- null}
h -t 0.80166 -s 1 -d 2 -p tcp -e 1040 -c 0 -i 15 -a 0 -x {0.0 3.0 -1 ------- null}
r -t 0.80244 -s 0 -d 1 -p tcp -e 1040 -c 0 -i 18 -a 0 -x {0.0 3.0 11 ------- null}
+ -t 0.80244 -s 1 -d 2 -p tcp -e 1040 -c 0 -i 18 -a 0 -x {0.0 3.0 11 ------- null}
- -t 0.80908 -s 0 -d 1 -p tcp -e 1040 -c 0 -i 21 -a 0 -x {0.0 3.0 14 ------- null}
h -t 0.80908 -s 0 -d 1 -p tcp -e 1040 -c 0 -i 21 -a 0 -x {0.0 3.0 -1 ------- null}
r -t 0.81076 -s 0 -d 1 -p tcp -e 1040 -c 0 -i 19 -a 0 -x {0.0 3.0 12 ------- null}
+ -t 0.81076 -s 1 -d 2 -p tcp -e 1040 -c 0 -i 19 -a 0 -x {0.0 3.0 12 ------- null}
r -t 0.81166 -s 1 -d 2 -p tcp -e 1040 -c 0 -i 13 -a 0 -x {0.0 3.0 8 ------- null}
+ -t 0.81166 -s 2 -d 3 -p tcp -e 1040 -c 0 -i 13 -a 0 -x {0.0 3.0 8 ------- null}
- -t 0.81166 -s 2 -d 3 -p tcp -e 1040 -c 0 -i 13 -a 0 -x {0.0 3.0 8 ------- null}
h -t 0.81166 -s 2 -d 3 -p tcp -e 1040 -c 0 -i 13 -a 0 -x {0.0 3.0 -1 ------- null}
r -t 0.81373 -s 2 -d 3 -p tcp -e 1040 -c 0 -i 12 -a 0 -x {0.0 3.0 7 ------- null}
+ -t 0.81373 -s 3 -d 2 -p ack -e 40 -c 0 -i 22 -a 0 -x {3.0 0.0 7 ------- null}
- -t 0.81373 -s 3 -d 2 -p ack -e 40 -c 0 -i 22 -a 0 -x {3.0 0.0 7 ------- null}
h -t 0.81373 -s 3 -d 2 -p ack -e 40 -c 0 -i 22 -a 0 -x {3.0 0.0 -1 ------- null}
- -t 0.81791 -s 1 -d 2 -p tcp -e 1040 -c 0 -i 16 -a 0 -x {0.0 3.0 10 ------- null}
h -t 0.81791 -s 1 -d 2 -p tcp -e 1040 -c 0 -i 16 -a 0 -x {0.0 3.0 -1 ------- null}
r -t 0.81908 -s 0 -d 1 -p tcp -e 1040 -c 0 -i 20 -a 0 -x {0.0 3.0 13 ------- null}
+ -t 0.81908 -s 1 -d 2 -p tcp -e 1040 -c 0 -i 20 -a 0 -x {0.0 3.0 13 ------- null}
r -t 0.82405 -s 3 -d 2 -p ack -e 40 -c 0 -i 22 -a 0 -x {3.0 0.0 7 ------- null}
+ -t 0.82405 -s 2 -d 1 -p ack -e 40 -c 0 -i 22 -a 0 -x {3.0 0.0 7 ------- null}
- -t 0.82405 -s 2 -d 1 -p ack -e 40 -c 0 -i 22 -a 0 -x {3.0 0.0 7 ------- null}
h -t 0.82405 -s 2 -d 1 -p ack -e 40 -c 0 -i 22 -a 0 -x {3.0 0.0 -1 ------- null}
r -t 0.8274 -s 0 -d 1 -p tcp -e 1040 -c 0 -i 21 -a 0 -x {0.0 3.0 14 ------- null}
+ -t 0.8274 -s 1 -d 2 -p tcp -e 1040 -c 0 -i 21 -a 0 -x {0.0 3.0 14 ------- null}
r -t 0.82791 -s 1 -d 2 -p tcp -e 1040 -c 0 -i 15 -a 0 -x {0.0 3.0 9 ------- null}
+ -t 0.82791 -s 2 -d 3 -p tcp -e 1040 -c 0 -i 15 -a 0 -x {0.0 3.0 9 ------- null}
- -t 0.82791 -s 2 -d 3 -p tcp -e 1040 -c 0 -i 15 -a 0 -x {0.0 3.0 9 ------- null}
h -t 0.82791 -s 2 -d 3 -p tcp -e 1040 -c 0 -i 15 -a 0 -x {0.0 3.0 -1 ------- null}
r -t 0.82998 -s 2 -d 3 -p tcp -e 1040 -c 0 -i 13 -a 0 -x {0.0 3.0 8 ------- null}
+ -t 0.82998 -s 3 -d 2 -p ack -e 40 -c 0 -i 23 -a 0 -x {3.0 0.0 8 ------- null}
- -t 0.82998 -s 3 -d 2 -p ack -e 40 -c 0 -i 23 -a 0 -x {3.0 0.0 8 ------- null}
h -t 0.82998 -s 3 -d 2 -p ack -e 40 -c 0 -i 23 -a 0 -x {3.0 0.0 -1 ------- null}
- -t 0.83416 -s 1 -d 2 -p tcp -e 1040 -c 0 -i 18 -a 0 -x {0.0 3.0 11 ------- null}
h -t 0.83416 -s 1 -d 2 -p tcp -e 1040 -c 0 -i 18 -a 0 -x {0.0 3.0 -1 ------- null}
r -t 0.834675 -s 2 -d 1 -p ack -e 40 -c 0 -i 22 -a 0 -x {3.0 0.0 7 ------- null}
+ -t 0.834675 -s 1 -d 0 -p ack -e 40 -c 0 -i 22 -a 0 -x {3.0 0.0 7 ------- null}
- -t 0.834675 -s 1 -d 0 -p ack -e 40 -c 0 -i 22 -a 0 -x {3.0 0.0 7 ------- null}
h -t 0.834675 -s 1 -d 0 -p ack -e 40 -c 0 -i 22 -a 0 -x {3.0 0.0 -1 ------- null}
r -t 0.8403 -s 3 -d 2 -p ack -e 40 -c 0 -i 23 -a 0 -x {3.0 0.0 8 ------- null}
+ -t 0.8403 -s 2 -d 1 -p ack -e 40 -c 0 -i 23 -a 0 -x {3.0 0.0 8 ------- null}
- -t 0.8403 -s 2 -d 1 -p ack -e 40 -c 0 -i 23 -a 0 -x {3.0 0.0 8 ------- null}
h -t 0.8403 -s 2 -d 1 -p ack -e 40 -c 0 -i 23 -a 0 -x {3.0 0.0 -1 ------- null}
r -t 0.84416 -s 1 -d 2 -p tcp -e 1040 -c 0 -i 16 -a 0 -x {0.0 3.0 10 ------- null}
+ -t 0.84416 -s 2 -d 3 -p tcp -e 1040 -c 0 -i 16 -a 0 -x {0.0 3.0 10 ------- null}
- -t 0.84416 -s 2 -d 3 -p tcp -e 1040 -c 0 -i 16 -a 0 -x {0.0 3.0 10 ------- null}
h -t 0.84416 -s 2 -d 3 -p tcp -e 1040 -c 0 -i 16 -a 0 -x {0.0 3.0 -1 ------- null}
r -t 0.844995 -s 1 -d 0 -p ack -e 40 -c 0 -i 22 -a 0 -x {3.0 0.0 7 ------- null}
+ -t 0.844995 -s 0 -d 1 -p tcp -e 1040 -c 0 -i 24 -a 0 -x {0.0 3.0 15 ------- null}
- -t 0.844995 -s 0 -d 1 -p tcp -e 1040 -c 0 -i 24 -a 0 -x {0.0 3.0 15 ------- null}
h -t 0.844995 -s 0 -d 1 -p tcp -e 1040 -c 0 -i 24 -a 0 -x {0.0 3.0 -1 ------- null}
+ -t 0.844995 -s 0 -d 1 -p tcp -e 1040 -c 0 -i 25 -a 0 -x {0.0 3.0 16 ------- null}
r -t 0.84623 -s 2 -d 3 -p tcp -e 1040 -c 0 -i 15 -a 0 -x {0.0 3.0 9 ------- null}
+ -t 0.84623 -s 3 -d 2 -p ack -e 40 -c 0 -i 26 -a 0 -x {3.0 0.0 9 ------- null}
- -t 0.84623 -s 3 -d 2 -p ack -e 40 -c 0 -i 26 -a 0 -x {3.0 0.0 9 ------- null}
h -t 0.84623 -s 3 -d 2 -p ack -e 40 -c 0 -i 26 -a 0 -x {3.0 0.0 -1 ------- null}
- -t 0.85041 -s 1 -d 2 -p tcp -e 1040 -c 0 -i 19 -a 0 -x {0.0 3.0 12 ------- null}
h -t 0.85041 -s 1 -d 2 -p tcp -e 1040 -c 0 -i 19 -a 0 -x {0.0 3.0 -1 ------- null}
r -t 0.850925 -s 2 -d 1 -p ack -e 40 -c 0 -i 23 -a 0 -x {3.0 0.0 8 ------- null}
+ -t 0.850925 -s 1 -d 0 -p ack -e 40 -c 0 -i 23 -a 0 -x {3.0 0.0 8 ------- null}
- -t 0.850925 -s 1 -d 0 -p ack -e 40 -c 0 -i 23 -a 0 -x {3.0 0.0 8 ------- null}
h -t 0.850925 -s 1 -d 0 -p ack -e 40 -c 0 -i 23 -a 0 -x {3.0 0.0 -1 ------- null}
- -t 0.853315 -s 0 -d 1 -p tcp -e 1040 -c 0 -i 25 -a 0 -x {0.0 3.0 16 ------- null}
h -t 0.853315 -s 0 -d 1 -p tcp -e 1040 -c 0 -i 25 -a 0 -x {0.0 3.0 -1 ------- null}
r -t 0.85655 -s 3 -d 2 -p ack -e 40 -c 0 -i 26 -a 0 -x {3.0 0.0 9 ------- null}
+ -t 0.85655 -s 2 -d 1 -p ack -e 40 -c 0 -i 26 -a 0 -x {3.0 0.0 9 ------- null}
- -t 0.85655 -s 2 -d 1 -p ack -e 40 -c 0 -i 26 -a 0 -x {3.0 0.0 9 ------- null}
h -t 0.85655 -s 2 -d 1 -p ack -e 40 -c 0 -i 26 -a 0 -x {3.0 0.0 -1 ------- null}
r -t 0.86041 -s 1 -d 2 -p tcp -e 1040 -c 0 -i 18 -a 0 -x {0.0 3.0 11 ------- null}
+ -t 0.86041 -s 2 -d 3 -p tcp -e 1040 -c 0 -i 18 -a 0 -x {0.0 3.0 11 ------- null}
- -t 0.86041 -s 2 -d 3 -p tcp -e 1040 -c 0 -i 18 -a 0 -x {0.0 3.0 11 ------- null}
h -t 0.86041 -s 2 -d 3 -p tcp -e 1040 -c 0 -i 18 -a 0 -x {0.0 3.0 -1 ------- null}
r -t 0.861245 -s 1 -d 0 -p ack -e 40 -c 0 -i 23 -a 0 -x {3.0 0.0 8 ------- null}
+ -t 0.861245 -s 0 -d 1 -p tcp -e 1040 -c 0 -i 27 -a 0 -x {0.0 3.0 17 ------- null}
+ -t 0.861245 -s 0 -d 1 -p tcp -e 1040 -c 0 -i 28 -a 0 -x {0.0 3.0 18 ------- null}
- -t 0.861635 -s 0 -d 1 -p tcp -e 1040 -c 0 -i 27 -a 0 -x {0.0 3.0 17 ------- null}
h -t 0.861635 -s 0 -d 1 -p tcp -e 1040 -c 0 -i 27 -a 0 -x {0.0 3.0 -1 ------- null}
r -t 0.86248 -s 2 -d 3 -p tcp -e 1040 -c 0 -i 16 -a 0 -x {0.0 3.0 10 ------- null}
+ -t 0.86248 -s 3 -d 2 -p ack -e 40 -c 0 -i 29 -a 0 -x {3.0 0.0 10 ------- null}
- -t 0.86248 -s 3 -d 2 -p ack -e 40 -c 0 -i 29 -a 0 -x {3.0 0.0 10 ------- null}
h -t 0.86248 -s 3 -d 2 -p ack -e 40 -c 0 -i 29 -a 0 -x {3.0 0.0 -1 ------- null}
r -t 0.863315 -s 0 -d 1 -p tcp -e 1040 -c 0 -i 24 -a 0 -x {0.0 3.0 15 ------- null}
+ -t 0.863315 -s 1 -d 2 -p tcp -e 1040 -c 0 -i 24 -a 0 -x {0.0 3.0 15 ------- null}
- -t 0.86666 -s 1 -d 2 -p tcp -e 1040 -c 0 -i 20 -a 0 -x {0.0 3.0 13 ------- null}
h -t 0.86666 -s 1 -d 2 -p tcp -e 1040 -c 0 -i 20 -a 0 -x {0.0 3.0 -1 ------- null}
r -t 0.867175 -s 2 -d 1 -p ack -e 40 -c 0 -i 26 -a 0 -x {3.0 0.0 9 ------- null}
+ -t 0.867175 -s 1 -d 0 -p ack -e 40 -c 0 -i 26 -a 0 -x {3.0 0.0 9 ------- null}
- -t 0.867175 -s 1 -d 0 -p ack -e 40 -c 0 -i 26 -a 0 -x {3.0 0.0 9 ------- null}
h -t 0.867175 -s 1 -d 0 -p ack -e 40 -c 0 -i 26 -a 0 -x {3.0 0.0 -1 ------- null}
- -t 0.869955 -s 0 -d 1 -p tcp -e 1040 -c 0 -i 28 -a 0 -x {0.0 3.0 18 ------- null}
h -t 0.869955 -s 0 -d 1 -p tcp -e 1040 -c 0 -i 28 -a 0 -x {0.0 3.0 -1 ------- null}
r -t 0.871635 -s 0 -d 1 -p tcp -e 1040 -c 0 -i 25 -a 0 -x {0.0 3.0 16 ------- null}
+ -t 0.871635 -s 1 -d 2 -p tcp -e 1040 -c 0 -i 25 -a 0 -x {0.0 3.0 16 ------- null}
r -t 0.8728 -s 3 -d 2 -p ack -e 40 -c 0 -i 29 -a 0 -x {3.0 0.0 10 ------- null}
+ -t 0.8728 -s 2 -d 1 -p ack -e 40 -c 0 -i 29 -a 0 -x {3.0 0.0 10 ------- null}
- -t 0.8728 -s 2 -d 1 -p ack -e 40 -c 0 -i 29 -a 0 -x {3.0 0.0 10 ------- null}
h -t 0.8728 -s 2 -d 1 -p ack -e 40 -c 0 -i 29 -a 0 -x {3.0 0.0 -1 ------- null}
r -t 0.87666 -s 1 -d 2 -p tcp -e 1040 -c 0 -i 19 -a 0 -x {0.0 3.0 12 ------- null}
+ -t 0.87666 -s 2 -d 3 -p tcp -e 1040 -c 0 -i 19 -a 0 -x {0.0 3.0 12 ------- null}
- -t 0.87666 -s 2 -d 3 -p tcp -e 1040 -c 0 -i 19 -a 0 -x {0.0 3.0 12 ------- null}
h -t 0.87666 -s 2 -d 3 -p tcp -e 1040 -c 0 -i 19 -a 0 -x {0.0 3.0 -1 ------- null}
r -t 0.877495 -s 1 -d 0 -p ack -e 40 -c 0 -i 26 -a 0 -x {3.0 0.0 9 ------- null}
+ -t 0.877495 -s 0 -d 1 -p tcp -e 1040 -c 0 -i 30 -a 0 -x {0.0 3.0 19 ------- null}
+ -t 0.877495 -s 0 -d 1 -p tcp -e 1040 -c 0 -i 31 -a 0 -x {0.0 3.0 20 ------- null}
- -t 0.878275 -s 0 -d 1 -p tcp -e 1040 -c 0 -i 30 -a 0 -x {0.0 3.0 19 ------- null}
h -t 0.878275 -s 0 -d 1 -p tcp -e 1040 -c 0 -i 30 -a 0 -x {0.0 3.0 -1 ------- null}
r -t 0.87873 -s 2 -d 3 -p tcp -e 1040 -c 0 -i 18 -a 0 -x {0.0 3.0 11 ------- null}
+ -t 0.87873 -s 3 -d 2 -p ack -e 40 -c 0 -i 32 -a 0 -x {3.0 0.0 11 ------- null}
- -t 0.87873 -s 3 -d 2 -p ack -e 40 -c 0 -i 32 -a 0 -x {3.0 0.0 11 ------- null}
h -t 0.87873 -s 3 -d 2 -p ack -e 40 -c 0 -i 32 -a 0 -x {3.0 0.0 -1 ------- null}
r -t 0.879955 -s 0 -d 1 -p tcp -e 1040 -c 0 -i 27 -a 0 -x {0.0 3.0 17 ------- null}
+ -t 0.879955 -s 1 -d 2 -p tcp -e 1040 -c 0 -i 27 -a 0 -x {0.0 3.0 17 ------- null}
- -t 0.88291 -s 1 -d 2 -p tcp -e 1040 -c 0 -i 21 -a 0 -x {0.0 3.0 14 ------- null}
h -t 0.88291 -s 1 -d 2 -p tcp -e 1040 -c 0 -i 21 -a 0 -x {0.0 3.0 -1 ------- null}
r -t 0.883425 -s 2 -d 1 -p ack -e 40 -c 0 -i 29 -a 0 -x {3.0 0.0 10 ------- null}
+ -t 0.883425 -s 1 -d 0 -p ack -e 40 -c 0 -i 29 -a 0 -x {3.0 0.0 10 ------- null}
- -t 0.883425 -s 1 -d 0 -p ack -e 40 -c 0 -i 29 -a 0 -x {3.0 0.0 10 ------- null}
h -t 0.883425 -s 1 -d 0 -p ack -e 40 -c 0 -i 29 -a 0 -x {3.0 0.0 -1 ------- null}
- -t 0.886595 -s 0 -d 1 -p tcp -e 1040 -c 0 -i 31 -a 0 -x {0.0 3.0 20 ------- null}
h -t 0.886595 -s 0 -d 1 -p tcp -e 1040 -c 0 -i 31 -a 0 -x {0.0 3.0 -1 ------- null}
r -t 0.888275 -s 0 -d 1 -p tcp -e 1040 -c 0 -i 28 -a 0 -x {0.0 3.0 18 ------- null}
+ -t 0.888275 -s 1 -d 2 -p tcp -e 1040 -c 0 -i 28 -a 0 -x {0.0 3.0 18 ------- null}
r -t 0.88905 -s 3 -d 2 -p ack -e 40 -c 0 -i 32 -a 0 -x {3.0 0.0 11 ------- null}
+ -t 0.88905 -s 2 -d 1 -p ack -e 40 -c 0 -i 32 -a 0 -x {3.0 0.0 11 ------- null}
- -t 0.88905 -s 2 -d 1 -p ack -e 40 -c 0 -i 32 -a 0 -x {3.0 0.0 11 ------- null}
h -t 0.88905 -s 2 -d 1 -p ack -e 40 -c 0 -i 32 -a 0 -x {3.0 0.0 -1 ------- null}
r -t 0.89291 -s 1 -d 2 -p tcp -e 1040 -c 0 -i 20 -a 0 -x {0.0 3.0 13 ------- null}
+ -t 0.89291 -s 2 -d 3 -p tcp -e 1040 -c 0 -i 20 -a 0 -x {0.0 3.0 13 ------- null}
- -t 0.89291 -s 2 -d 3 -p tcp -e 1040 -c 0 -i 20 -a 0 -x {0.0 3.0 13 ------- null}
h -t 0.89291 -s 2 -d 3 -p tcp -e 1040 -c 0 -i 20 -a 0 -x {0.0 3.0 -1 ------- null}
r -t 0.893745 -s 1 -d 0 -p ack -e 40 -c 0 -i 29 -a 0 -x {3.0 0.0 10 ------- null}
+ -t 0.893745 -s 0 -d 1 -p tcp -e 1040 -c 0 -i 33 -a 0 -x {0.0 3.0 21 ------- null}
+ -t 0.893745 -s 0 -d 1 -p tcp -e 1040 -c 0 -i 34 -a 0 -x {0.0 3.0 22 ------- null}
- -t 0.894915 -s 0 -d 1 -p tcp -e 1040 -c 0 -i 33 -a 0 -x {0.0 3.0 21 ------- null}
h -t 0.894915 -s 0 -d 1 -p tcp -e 1040 -c 0 -i 33 -a 0 -x {0.0 3.0 -1 ------- null}
r -t 0.89498 -s 2 -d 3 -p tcp -e 1040 -c 0 -i 19 -a 0 -x {0.0 3.0 12 ------- null}
+ -t 0.89498 -s 3 -d 2 -p ack -e 40 -c 0 -i 35 -a 0 -x {3.0 0.0 12 ------- null}
- -t 0.89498 -s 3 -d 2 -p ack -e 40 -c 0 -i 35 -a 0 -x {3.0 0.0 12 ------- null}
h -t 0.89498 -s 3 -d 2 -p ack -e 40 -c 0 -i 35 -a 0 -x {3.0 0.0 -1 ------- null}
r -t 0.896595 -s 0 -d 1 -p tcp -e 1040 -c 0 -i 30 -a 0 -x {0.0 3.0 19 ------- null}
+ -t 0.896595 -s 1 -d 2 -p tcp -e 1040 -c 0 -i 30 -a 0 -x {0.0 3.0 19 ------- null}
- -t 0.89916 -s 1 -d 2 -p tcp -e 1040 -c 0 -i 24 -a 0 -x {0.0 3.0 15 ------- null}
h -t 0.89916 -s 1 -d 2 -p tcp -e 1040 -c 0 -i 24 -a 0 -x {0.0 3.0 -1 ------- null}
r -t 0.899675 -s 2 -d 1 -p ack -e 40 -c 0 -i 32 -a 0 -x {3.0 0.0 11 ------- null}
+ -t 0.899675 -s 1 -d 0 -p ack -e 40 -c 0 -i 32 -a 0 -x {3.0 0.0 11 ------- null}
- -t 0.899675 -s 1 -d 0 -p ack -e 40 -c 0 -i 32 -a 0 -x {3.0 0.0 11 ------- null}
h -t 0.899675 -s 1 -d 0 -p ack -e 40 -c 0 -i 32 -a 0 -x {3.0 0.0 -1 ------- null}
- -t 0.903235 -s 0 -d 1 -p tcp -e 1040 -c 0 -i 34 -a 0 -x {0.0 3.0 22 ------- null}
h -t 0.903235 -s 0 -d 1 -p tcp -e 1040 -c 0 -i 34 -a 0 -x {0.0 3.0 -1 ------- null}
r -t 0.904915 -s 0 -d 1 -p tcp -e 1040 -c 0 -i 31 -a 0 -x {0.0 3.0 20 ------- null}
+ -t 0.904915 -s 1 -d 2 -p tcp -e 1040 -c 0 -i 31 -a 0 -x {0.0 3.0 20 ------- null}
r -t 0.9053 -s 3 -d 2 -p ack -e 40 -c 0 -i 35 -a 0 -x {3.0 0.0 12 ------- null}
+ -t 0.9053 -s 2 -d 1 -p ack -e 40 -c 0 -i 35 -a 0 -x {3.0 0.0 12 ------- null}
- -t 0.9053 -s 2 -d 1 -p ack -e 40 -c 0 -i 35 -a 0 -x {3.0 0.0 12 ------- null}
h -t 0.9053 -s 2 -d 1 -p ack -e 40 -c 0 -i 35 -a 0 -x {3.0 0.0 -1 ------- null}